v 0.3 eval {set sim_annotation {0.29999999999999999 4 join-group 1073741824}}
+ 1 0 4 cbr 1000 ------- 0 0.1 1073741824.0 0 0
- 1 0 4 cbr 1000 ------- 0 0.1 1073741824.0 0 0
+ 1 0 1 cbr 1000 ------- 0 0.1 1073741824.0 0 0
- 1 0 1 cbr 1000 ------- 0 0.1 1073741824.0 0 0
+ 1 0 2 cbr 1000 ------- 0 0.1 1073741824.0 0 0
- 1 0 2 cbr 1000 ------- 0 0.1 1073741824.0 0 0
+ 1 0 3 cbr 1000 ------- 0 0.1 1073741824.0 0 0
- 1 0 3 cbr 1000 ------- 0 0.1 1073741824.0 0 0
+ 1.008 0 4 cbr 1000 ------- 0 0.1 1073741824.0 1 1
- 1.008 0 4 cbr 1000 ------- 0 0.1 1073741824.0 1 1
+ 1.008 0 1 cbr 1000 ------- 0 0.1 1073741824.0 1 1
- 1.008 0 1 cbr 1000 ------- 0 0.1 1073741824.0 1 1
+ 1.008 0 2 cbr 1000 ------- 0 0.1 1073741824.0 1 1
- 1.008 0 2 cbr 1000 ------- 0 0.1 1073741824.0 1 1
+ 1.008 0 3 cbr 1000 ------- 0 0.1 1073741824.0 1 1
- 1.008 0 3 cbr 1000 ------- 0 0.1 1073741824.0 1 1
r 1.01008 0 4 cbr 1000 ------- 0 0.1 1073741824.0 0 0
r 1.01008 0 1 cbr 1000 ------- 0 0.1 1073741824.0 0 0
+ 1.01008 1 0 prune 80 ------- 30 1.0 0.0 -1 2
- 1.01008 1 0 prune 80 ------- 30 1.0 0.0 -1 2
r 1.01008 0 2 cbr 1000 ------- 0 0.1 1073741824.0 0 0
+ 1.01008 2 0 prune 80 ------- 30 2.0 0.0 -1 3
- 1.01008 2 0 prune 80 ------- 30 2.0 0.0 -1 3
r 1.01008 0 3 cbr 1000 ------- 0 0.1 1073741824.0 0 0
+ 1.01008 3 0 prune 80 ------- 30 3.0 0.0 -1 4
- 1.01008 3 0 prune 80 ------- 30 3.0 0.0 -1 4
+ 1.016 0 4 cbr 1000 ------- 0 0.1 1073741824.0 2 5
- 1.016 0 4 cbr 1000 ------- 0 0.1 1073741824.0 2 5
+ 1.016 0 1 cbr 1000 ------- 0 0.1 1073741824.0 2 5
- 1.016 0 1 cbr 1000 ------- 0 0.1 1073741824.0 2 5
+ 1.016 0 2 cbr 1000 ------- 0 0.1 1073741824.0 2 5
- 1.016 0 2 cbr 1000 ------- 0 0.1 1073741824.0 2 5
+ 1.016 0 3 cbr 1000 ------- 0 0.1 1073741824.0 2 5
- 1.016 0 3 cbr 1000 ------- 0 0.1 1073741824.0 2 5
r 1.01808 0 4 cbr 1000 ------- 0 0.1 1073741824.0 1 1
r 1.01808 0 1 cbr 1000 ------- 0 0.1 1073741824.0 1 1
+ 1.01808 1 0 prune 80 ------- 30 1.0 0.0 -1 6
- 1.01808 1 0 prune 80 ------- 30 1.0 0.0 -1 6
r 1.01808 0 2 cbr 1000 ------- 0 0.1 1073741824.0 1 1
+ 1.01808 2 0 prune 80 ------- 30 2.0 0.0 -1 7
- 1.01808 2 0 prune 80 ------- 30 2.0 0.0 -1 7
r 1.01808 0 3 cbr 1000 ------- 0 0.1 1073741824.0 1 1
+ 1.01808 3 0 prune 80 ------- 30 3.0 0.0 -1 8
- 1.01808 3 0 prune 80 ------- 30 3.0 0.0 -1 8
r 1.020086 1 0 prune 80 ------- 30 1.0 0.0 -1 2
r 1.020086 2 0 prune 80 ------- 30 2.0 0.0 -1 3
r 1.020086 3 0 prune 80 ------- 30 3.0 0.0 -1 4
+ 1.024 0 4 cbr 1000 ------- 0 0.1 1073741824.0 3 9
- 1.024 0 4 cbr 1000 ------- 0 0.1 1073741824.0 3 9
r 1.02608 0 4 cbr 1000 ------- 0 0.1 1073741824.0 2 5
r 1.02608 0 1 cbr 1000 ------- 0 0.1 1073741824.0 2 5
+ 1.02608 1 0 prune 80 ------- 30 1.0 0.0 -1 10
- 1.02608 1 0 prune 80 ------- 30 1.0 0.0 -1 10
r 1.02608 0 2 cbr 1000 ------- 0 0.1 1073741824.0 2 5
+ 1.02608 2 0 prune 80 ------- 30 2.0 0.0 -1 11
- 1.02608 2 0 prune 80 ------- 30 2.0 0.0 -1 11
r 1.02608 0 3 cbr 1000 ------- 0 0.1 1073741824.0 2 5
+ 1.02608 3 0 prune 80 ------- 30 3.0 0.0 -1 12
- 1.02608 3 0 prune 80 ------- 30 3.0 0.0 -1 12
r 1.028086 1 0 prune 80 ------- 30 1.0 0.0 -1 6
r 1.028086 2 0 prune 80 ------- 30 2.0 0.0 -1 7
r 1.028086 3 0 prune 80 ------- 30 3.0 0.0 -1 8
+ 1.032 0 4 cbr 1000 ------- 0 0.1 1073741824.0 4 13
- 1.032 0 4 cbr 1000 ------- 0 0.1 1073741824.0 4 13
r 1.03408 0 4 cbr 1000 ------- 0 0.1 1073741824.0 3 9
r 1.036086 1 0 prune 80 ------- 30 1.0 0.0 -1 10
r 1.036086 2 0 prune 80 ------- 30 2.0 0.0 -1 11
r 1.036086 3 0 prune 80 ------- 30 3.0 0.0 -1 12
+ 1.04 0 4 cbr 1000 ------- 0 0.1 1073741824.0 5 14
- 1.04 0 4 cbr 1000 ------- 0 0.1 1073741824.0 5 14
r 1.04208 0 4 cbr 1000 ------- 0 0.1 1073741824.0 4 13
+ 1.048 0 4 cbr 1000 ------- 0 0.1 1073741824.0 6 15
- 1.048 0 4 cbr 1000 ------- 0 0.1 1073741824.0 6 15
r 1.05008 0 4 cbr 1000 ------- 0 0.1 1073741824.0 5 14
+ 1.056 0 4 cbr 1000 ------- 0 0.1 1073741824.0 7 16
- 1.056 0 4 cbr 1000 ------- 0 0.1 1073741824.0 7 16
r 1.05808 0 4 cbr 1000 ------- 0 0.1 1073741824.0 6 15
+ 1.064 0 4 cbr 1000 ------- 0 0.1 1073741824.0 8 17
- 1.064 0 4 cbr 1000 ------- 0 0.1 1073741824.0 8 17
r 1.06608 0 4 cbr 1000 ------- 0 0.1 1073741824.0 7 16
+ 1.072 0 4 cbr 1000 ------- 0 0.1 1073741824.0 9 18
- 1.072 0 4 cbr 1000 ------- 0 0.1 1073741824.0 9 18
r 1.07408 0 4 cbr 1000 ------- 0 0.1 1073741824.0 8 17
+ 1.08 0 4 cbr 1000 ------- 0 0.1 1073741824.0 10 19
- 1.08 0 4 cbr 1000 ------- 0 0.1 1073741824.0 10 19
r 1.08208 0 4 cbr 1000 ------- 0 0.1 1073741824.0 9 18
+ 1.088 0 4 cbr 1000 ------- 0 0.1 1073741824.0 11 20
- 1.088 0 4 cbr 1000 ------- 0 0.1 1073741824.0 11 20
r 1.09008 0 4 cbr 1000 ------- 0 0.1 1073741824.0 10 19
+ 1.096 0 4 cbr 1000 ------- 0 0.1 1073741824.0 12 21
- 1.096 0 4 cbr 1000 ------- 0 0.1 1073741824.0 12 21
r 1.09808 0 4 cbr 1000 ------- 0 0.1 1073741824.0 11 20
+ 1.104 0 4 cbr 1000 ------- 0 0.1 1073741824.0 13 22
- 1.104 0 4 cbr 1000 ------- 0 0.1 1073741824.0 13 22
r 1.10608 0 4 cbr 1000 ------- 0 0.1 1073741824.0 12 21
+ 1.112 0 4 cbr 1000 ------- 0 0.1 1073741824.0 14 23
- 1.112 0 4 cbr 1000 ------- 0 0.1 1073741824.0 14 23
r 1.11408 0 4 cbr 1000 ------- 0 0.1 1073741824.0 13 22
v 1.12 eval {set sim_annotation {1.1200000000000001 2 join-group 1073741824}}
+ 1.12 2 0 graft 80 ------- 31 2.0 0.0 -1 24
- 1.12 2 0 graft 80 ------- 31 2.0 0.0 -1 24
+ 1.12 0 4 cbr 1000 ------- 0 0.1 1073741824.0 15 25
- 1.12 0 4 cbr 1000 ------- 0 0.1 1073741824.0 15 25
r 1.12208 0 4 cbr 1000 ------- 0 0.1 1073741824.0 14 23
+ 1.128 0 4 cbr 1000 ------- 0 0.1 1073741824.0 16 26
- 1.128 0 4 cbr 1000 ------- 0 0.1 1073741824.0 16 26
r 1.130006 2 0 graft 80 ------- 31 2.0 0.0 -1 24
r 1.13008 0 4 cbr 1000 ------- 0 0.1 1073741824.0 15 25
+ 1.136 0 4 cbr 1000 ------- 0 0.1 1073741824.0 17 27
- 1.136 0 4 cbr 1000 ------- 0 0.1 1073741824.0 17 27
+ 1.136 0 2 cbr 1000 ------- 0 0.1 1073741824.0 17 27
- 1.136 0 2 cbr 1000 ------- 0 0.1 1073741824.0 17 27
r 1.13808 0 4 cbr 1000 ------- 0 0.1 1073741824.0 16 26
+ 1.144 0 4 cbr 1000 ------- 0 0.1 1073741824.0 18 28
- 1.144 0 4 cbr 1000 ------- 0 0.1 1073741824.0 18 28
+ 1.144 0 2 cbr 1000 ------- 0 0.1 1073741824.0 18 28
- 1.144 0 2 cbr 1000 ------- 0 0.1 1073741824.0 18 28
r 1.14608 0 4 cbr 1000 ------- 0 0.1 1073741824.0 17 27
r 1.14608 0 2 cbr 1000 ------- 0 0.1 1073741824.0 17 27
v 1.15 eval {set sim_annotation {1.1499999999999999 3 join-group 1073741824}}
+ 1.15 3 0 graft 80 ------- 31 3.0 0.0 -1 29
- 1.15 3 0 graft 80 ------- 31 3.0 0.0 -1 29
+ 1.152 0 4 cbr 1000 ------- 0 0.1 1073741824.0 19 30
- 1.152 0 4 cbr 1000 ------- 0 0.1 1073741824.0 19 30
+ 1.152 0 2 cbr 1000 ------- 0 0.1 1073741824.0 19 30
- 1.152 0 2 cbr 1000 ------- 0 0.1 1073741824.0 19 30
r 1.15408 0 4 cbr 1000 ------- 0 0.1 1073741824.0 18 28
r 1.15408 0 2 cbr 1000 ------- 0 0.1 1073741824.0 18 28
+ 1.16 0 4 cbr 1000 ------- 0 0.1 1073741824.0 20 31
- 1.16 0 4 cbr 1000 ------- 0 0.1 1073741824.0 20 31
+ 1.16 0 2 cbr 1000 ------- 0 0.1 1073741824.0 20 31
- 1.16 0 2 cbr 1000 ------- 0 0.1 1073741824.0 20 31
r 1.160006 3 0 graft 80 ------- 31 3.0 0.0 -1 29
r 1.16208 0 4 cbr 1000 ------- 0 0.1 1073741824.0 19 30
r 1.16208 0 2 cbr 1000 ------- 0 0.1 1073741824.0 19 30
+ 1.168 0 4 cbr 1000 ------- 0 0.1 1073741824.0 21 32
- 1.168 0 4 cbr 1000 ------- 0 0.1 1073741824.0 21 32
+ 1.168 0 2 cbr 1000 ------- 0 0.1 1073741824.0 21 32
- 1.168 0 2 cbr 1000 ------- 0 0.1 1073741824.0 21 32
+ 1.168 0 3 cbr 1000 ------- 0 0.1 1073741824.0 21 32
- 1.168 0 3 cbr 1000 ------- 0 0.1 1073741824.0 21 32
r 1.17008 0 4 cbr 1000 ------- 0 0.1 1073741824.0 20 31
r 1.17008 0 2 cbr 1000 ------- 0 0.1 1073741824.0 20 31
+ 1.176 0 4 cbr 1000 ------- 0 0.1 1073741824.0 22 33
- 1.176 0 4 cbr 1000 ------- 0 0.1 1073741824.0 22 33
+ 1.176 0 2 cbr 1000 ------- 0 0.1 1073741824.0 22 33
- 1.176 0 2 cbr 1000 ------- 0 0.1 1073741824.0 22 33
+ 1.176 0 3 cbr 1000 ------- 0 0.1 1073741824.0 22 33
- 1.176 0 3 cbr 1000 ------- 0 0.1 1073741824.0 22 33
r 1.17808 0 4 cbr 1000 ------- 0 0.1 1073741824.0 21 32
r 1.17808 0 2 cbr 1000 ------- 0 0.1 1073741824.0 21 32
r 1.17808 0 3 cbr 1000 ------- 0 0.1 1073741824.0 21 32
+ 1.184 0 4 cbr 1000 ------- 0 0.1 1073741824.0 23 34
- 1.184 0 4 cbr 1000 ------- 0 0.1 1073741824.0 23 34
+ 1.184 0 2 cbr 1000 ------- 0 0.1 1073741824.0 23 34
- 1.184 0 2 cbr 1000 ------- 0 0.1 1073741824.0 23 34
+ 1.184 0 3 cbr 1000 ------- 0 0.1 1073741824.0 23 34
- 1.184 0 3 cbr 1000 ------- 0 0.1 1073741824.0 23 34
r 1.18608 0 4 cbr 1000 ------- 0 0.1 1073741824.0 22 33
r 1.18608 0 2 cbr 1000 ------- 0 0.1 1073741824.0 22 33
r 1.18608 0 3 cbr 1000 ------- 0 0.1 1073741824.0 22 33
+ 1.192 0 4 cbr 1000 ------- 0 0.1 1073741824.0 24 35
- 1.192 0 4 cbr 1000 ------- 0 0.1 1073741824.0 24 35
+ 1.192 0 2 cbr 1000 ------- 0 0.1 1073741824.0 24 35
- 1.192 0 2 cbr 1000 ------- 0 0.1 1073741824.0 24 35
+ 1.192 0 3 cbr 1000 ------- 0 0.1 1073741824.0 24 35
- 1.192 0 3 cbr 1000 ------- 0 0.1 1073741824.0 24 35
r 1.19408 0 4 cbr 1000 ------- 0 0.1 1073741824.0 23 34
r 1.19408 0 2 cbr 1000 ------- 0 0.1 1073741824.0 23 34
r 1.19408 0 3 cbr 1000 ------- 0 0.1 1073741824.0 23 34
+ 1.2 0 4 cbr 1000 ------- 0 0.1 1073741824.0 25 36
- 1.2 0 4 cbr 1000 ------- 0 0.1 1073741824.0 25 36
+ 1.2 0 2 cbr 1000 ------- 0 0.1 1073741824.0 25 36
- 1.2 0 2 cbr 1000 ------- 0 0.1 1073741824.0 25 36
+ 1.2 0 3 cbr 1000 ------- 0 0.1 1073741824.0 25 36
- 1.2 0 3 cbr 1000 ------- 0 0.1 1073741824.0 25 36
r 1.20208 0 4 cbr 1000 ------- 0 0.1 1073741824.0 24 35
r 1.20208 0 2 cbr 1000 ------- 0 0.1 1073741824.0 24 35
r 1.20208 0 3 cbr 1000 ------- 0 0.1 1073741824.0 24 35
+ 1.208 0 4 cbr 1000 ------- 0 0.1 1073741824.0 26 37
- 1.208 0 4 cbr 1000 ------- 0 0.1 1073741824.0 26 37
+ 1.208 0 2 cbr 1000 ------- 0 0.1 1073741824.0 26 37
- 1.208 0 2 cbr 1000 ------- 0 0.1 1073741824.0 26 37
+ 1.208 0 3 cbr 1000 ------- 0 0.1 1073741824.0 26 37
- 1.208 0 3 cbr 1000 ------- 0 0.1 1073741824.0 26 37
r 1.21008 0 4 cbr 1000 ------- 0 0.1 1073741824.0 25 36
r 1.21008 0 2 cbr 1000 ------- 0 0.1 1073741824.0 25 36
r 1.21008 0 3 cbr 1000 ------- 0 0.1 1073741824.0 25 36
+ 1.216 0 4 cbr 1000 ------- 0 0.1 1073741824.0 27 38
- 1.216 0 4 cbr 1000 ------- 0 0.1 1073741824.0 27 38
+ 1.216 0 2 cbr 1000 ------- 0 0.1 1073741824.0 27 38
- 1.216 0 2 cbr 1000 ------- 0 0.1 1073741824.0 27 38
+ 1.216 0 3 cbr 1000 ------- 0 0.1 1073741824.0 27 38
- 1.216 0 3 cbr 1000 ------- 0 0.1 1073741824.0 27 38
r 1.21808 0 4 cbr 1000 ------- 0 0.1 1073741824.0 26 37
r 1.21808 0 2 cbr 1000 ------- 0 0.1 1073741824.0 26 37
r 1.21808 0 3 cbr 1000 ------- 0 0.1 1073741824.0 26 37
+ 1.224 0 4 cbr 1000 ------- 0 0.1 1073741824.0 28 39
- 1.224 0 4 cbr 1000 ------- 0 0.1 1073741824.0 28 39
+ 1.224 0 2 cbr 1000 ------- 0 0.1 1073741824.0 28 39
- 1.224 0 2 cbr 1000 ------- 0 0.1 1073741824.0 28 39
+ 1.224 0 3 cbr 1000 ------- 0 0.1 1073741824.0 28 39
- 1.224 0 3 cbr 1000 ------- 0 0.1 1073741824.0 28 39
r 1.22608 0 4 cbr 1000 ------- 0 0.1 1073741824.0 27 38
r 1.22608 0 2 cbr 1000 ------- 0 0.1 1073741824.0 27 38
r 1.22608 0 3 cbr 1000 ------- 0 0.1 1073741824.0 27 38
+ 1.232 0 4 cbr 1000 ------- 0 0.1 1073741824.0 29 40
- 1.232 0 4 cbr 1000 ------- 0 0.1 1073741824.0 29 40
+ 1.232 0 2 cbr 1000 ------- 0 0.1 1073741824.0 29 40
- 1.232 0 2 cbr 1000 ------- 0 0.1 1073741824.0 29 40
+ 1.232 0 3 cbr 1000 ------- 0 0.1 1073741824.0 29 40
- 1.232 0 3 cbr 1000 ------- 0 0.1 1073741824.0 29 40
r 1.23408 0 4 cbr 1000 ------- 0 0.1 1073741824.0 28 39
r 1.23408 0 2 cbr 1000 ------- 0 0.1 1073741824.0 28 39
r 1.23408 0 3 cbr 1000 ------- 0 0.1 1073741824.0 28 39
+ 1.24 0 4 cbr 1000 ------- 0 0.1 1073741824.0 30 41
- 1.24 0 4 cbr 1000 ------- 0 0.1 1073741824.0 30 41
+ 1.24 0 2 cbr 1000 ------- 0 0.1 1073741824.0 30 41
- 1.24 0 2 cbr 1000 ------- 0 0.1 1073741824.0 30 41
+ 1.24 0 3 cbr 1000 ------- 0 0.1 1073741824.0 30 41
- 1.24 0 3 cbr 1000 ------- 0 0.1 1073741824.0 30 41
r 1.24208 0 4 cbr 1000 ------- 0 0.1 1073741824.0 29 40
r 1.24208 0 2 cbr 1000 ------- 0 0.1 1073741824.0 29 40
r 1.24208 0 3 cbr 1000 ------- 0 0.1 1073741824.0 29 40
+ 1.248 0 4 cbr 1000 ------- 0 0.1 1073741824.0 31 42
- 1.248 0 4 cbr 1000 ------- 0 0.1 1073741824.0 31 42
+ 1.248 0 2 cbr 1000 ------- 0 0.1 1073741824.0 31 42
- 1.248 0 2 cbr 1000 ------- 0 0.1 1073741824.0 31 42
+ 1.248 0 3 cbr 1000 ------- 0 0.1 1073741824.0 31 42
- 1.248 0 3 cbr 1000 ------- 0 0.1 1073741824.0 31 42
r 1.25008 0 4 cbr 1000 ------- 0 0.1 1073741824.0 30 41
r 1.25008 0 2 cbr 1000 ------- 0 0.1 1073741824.0 30 41
r 1.25008 0 3 cbr 1000 ------- 0 0.1 1073741824.0 30 41
+ 1.256 0 4 cbr 1000 ------- 0 0.1 1073741824.0 32 43
- 1.256 0 4 cbr 1000 ------- 0 0.1 1073741824.0 32 43
+ 1.256 0 2 cbr 1000 ------- 0 0.1 1073741824.0 32 43
- 1.256 0 2 cbr 1000 ------- 0 0.1 1073741824.0 32 43
+ 1.256 0 3 cbr 1000 ------- 0 0.1 1073741824.0 32 43
- 1.256 0 3 cbr 1000 ------- 0 0.1 1073741824.0 32 43
r 1.25808 0 4 cbr 1000 ------- 0 0.1 1073741824.0 31 42
r 1.25808 0 2 cbr 1000 ------- 0 0.1 1073741824.0 31 42
r 1.25808 0 3 cbr 1000 ------- 0 0.1 1073741824.0 31 42
+ 1.264 0 4 cbr 1000 ------- 0 0.1 1073741824.0 33 44
- 1.264 0 4 cbr 1000 ------- 0 0.1 1073741824.0 33 44
+ 1.264 0 2 cbr 1000 ------- 0 0.1 1073741824.0 33 44
- 1.264 0 2 cbr 1000 ------- 0 0.1 1073741824.0 33 44
+ 1.264 0 3 cbr 1000 ------- 0 0.1 1073741824.0 33 44
- 1.264 0 3 cbr 1000 ------- 0 0.1 1073741824.0 33 44
r 1.26608 0 4 cbr 1000 ------- 0 0.1 1073741824.0 32 43
r 1.26608 0 2 cbr 1000 ------- 0 0.1 1073741824.0 32 43
r 1.26608 0 3 cbr 1000 ------- 0 0.1 1073741824.0 32 43
+ 1.272 0 4 cbr 1000 ------- 0 0.1 1073741824.0 34 45
- 1.272 0 4 cbr 1000 ------- 0 0.1 1073741824.0 34 45
+ 1.272 0 2 cbr 1000 ------- 0 0.1 1073741824.0 34 45
- 1.272 0 2 cbr 1000 ------- 0 0.1 1073741824.0 34 45
+ 1.272 0 3 cbr 1000 ------- 0 0.1 1073741824.0 34 45
- 1.272 0 3 cbr 1000 ------- 0 0.1 1073741824.0 34 45
r 1.27408 0 4 cbr 1000 ------- 0 0.1 1073741824.0 33 44
r 1.27408 0 2 cbr 1000 ------- 0 0.1 1073741824.0 33 44
r 1.27408 0 3 cbr 1000 ------- 0 0.1 1073741824.0 33 44
+ 1.28 0 4 cbr 1000 ------- 0 0.1 1073741824.0 35 46
- 1.28 0 4 cbr 1000 ------- 0 0.1 1073741824.0 35 46
+ 1.28 0 2 cbr 1000 ------- 0 0.1 1073741824.0 35 46
- 1.28 0 2 cbr 1000 ------- 0 0.1 1073741824.0 35 46
+ 1.28 0 3 cbr 1000 ------- 0 0.1 1073741824.0 35 46
- 1.28 0 3 cbr 1000 ------- 0 0.1 1073741824.0 35 46
r 1.28208 0 4 cbr 1000 ------- 0 0.1 1073741824.0 34 45
r 1.28208 0 2 cbr 1000 ------- 0 0.1 1073741824.0 34 45
r 1.28208 0 3 cbr 1000 ------- 0 0.1 1073741824.0 34 45
+ 1.288 0 4 cbr 1000 ------- 0 0.1 1073741824.0 36 47
- 1.288 0 4 cbr 1000 ------- 0 0.1 1073741824.0 36 47
+ 1.288 0 2 cbr 1000 ------- 0 0.1 1073741824.0 36 47
- 1.288 0 2 cbr 1000 ------- 0 0.1 1073741824.0 36 47
+ 1.288 0 3 cbr 1000 ------- 0 0.1 1073741824.0 36 47
- 1.288 0 3 cbr 1000 ------- 0 0.1 1073741824.0 36 47
r 1.29008 0 4 cbr 1000 ------- 0 0.1 1073741824.0 35 46
r 1.29008 0 2 cbr 1000 ------- 0 0.1 1073741824.0 35 46
r 1.29008 0 3 cbr 1000 ------- 0 0.1 1073741824.0 35 46
+ 1.296 0 4 cbr 1000 ------- 0 0.1 1073741824.0 37 48
- 1.296 0 4 cbr 1000 ------- 0 0.1 1073741824.0 37 48
+ 1.296 0 2 cbr 1000 ------- 0 0.1 1073741824.0 37 48
- 1.296 0 2 cbr 1000 ------- 0 0.1 1073741824.0 37 48
+ 1.296 0 3 cbr 1000 ------- 0 0.1 1073741824.0 37 48
- 1.296 0 3 cbr 1000 ------- 0 0.1 1073741824.0 37 48
r 1.29808 0 4 cbr 1000 ------- 0 0.1 1073741824.0 36 47
r 1.29808 0 2 cbr 1000 ------- 0 0.1 1073741824.0 36 47
r 1.29808 0 3 cbr 1000 ------- 0 0.1 1073741824.0 36 47
+ 1.304 0 4 cbr 1000 ------- 0 0.1 1073741824.0 38 49
- 1.304 0 4 cbr 1000 ------- 0 0.1 1073741824.0 38 49
+ 1.304 0 2 cbr 1000 ------- 0 0.1 1073741824.0 38 49
- 1.304 0 2 cbr 1000 ------- 0 0.1 1073741824.0 38 49
+ 1.304 0 3 cbr 1000 ------- 0 0.1 1073741824.0 38 49
- 1.304 0 3 cbr 1000 ------- 0 0.1 1073741824.0 38 49
r 1.30608 0 4 cbr 1000 ------- 0 0.1 1073741824.0 37 48
r 1.30608 0 2 cbr 1000 ------- 0 0.1 1073741824.0 37 48
r 1.30608 0 3 cbr 1000 ------- 0 0.1 1073741824.0 37 48
+ 1.312 0 4 cbr 1000 ------- 0 0.1 1073741824.0 39 50
- 1.312 0 4 cbr 1000 ------- 0 0.1 1073741824.0 39 50
+ 1.312 0 2 cbr 1000 ------- 0 0.1 1073741824.0 39 50
- 1.312 0 2 cbr 1000 ------- 0 0.1 1073741824.0 39 50
+ 1.312 0 3 cbr 1000 ------- 0 0.1 1073741824.0 39 50
- 1.312 0 3 cbr 1000 ------- 0 0.1 1073741824.0 39 50
r 1.31408 0 4 cbr 1000 ------- 0 0.1 1073741824.0 38 49
r 1.31408 0 2 cbr 1000 ------- 0 0.1 1073741824.0 38 49
r 1.31408 0 3 cbr 1000 ------- 0 0.1 1073741824.0 38 49
+ 1.32 0 4 cbr 1000 ------- 0 0.1 1073741824.0 40 51
- 1.32 0 4 cbr 1000 ------- 0 0.1 1073741824.0 40 51
+ 1.32 0 2 cbr 1000 ------- 0 0.1 1073741824.0 40 51
- 1.32 0 2 cbr 1000 ------- 0 0.1 1073741824.0 40 51
+ 1.32 0 3 cbr 1000 ------- 0 0.1 1073741824.0 40 51
- 1.32 0 3 cbr 1000 ------- 0 0.1 1073741824.0 40 51
r 1.32208 0 4 cbr 1000 ------- 0 0.1 1073741824.0 39 50
r 1.32208 0 2 cbr 1000 ------- 0 0.1 1073741824.0 39 50
r 1.32208 0 3 cbr 1000 ------- 0 0.1 1073741824.0 39 50
+ 1.328 0 4 cbr 1000 ------- 0 0.1 1073741824.0 41 52
- 1.328 0 4 cbr 1000 ------- 0 0.1 1073741824.0 41 52
+ 1.328 0 2 cbr 1000 ------- 0 0.1 1073741824.0 41 52
- 1.328 0 2 cbr 1000 ------- 0 0.1 1073741824.0 41 52
+ 1.328 0 3 cbr 1000 ------- 0 0.1 1073741824.0 41 52
- 1.328 0 3 cbr 1000 ------- 0 0.1 1073741824.0 41 52
r 1.33008 0 4 cbr 1000 ------- 0 0.1 1073741824.0 40 51
r 1.33008 0 2 cbr 1000 ------- 0 0.1 1073741824.0 40 51
r 1.33008 0 3 cbr 1000 ------- 0 0.1 1073741824.0 40 51
+ 1.336 0 4 cbr 1000 ------- 0 0.1 1073741824.0 42 53
- 1.336 0 4 cbr 1000 ------- 0 0.1 1073741824.0 42 53
+ 1.336 0 2 cbr 1000 ------- 0 0.1 1073741824.0 42 53
- 1.336 0 2 cbr 1000 ------- 0 0.1 1073741824.0 42 53
+ 1.336 0 3 cbr 1000 ------- 0 0.1 1073741824.0 42 53
- 1.336 0 3 cbr 1000 ------- 0 0.1 1073741824.0 42 53
r 1.33808 0 4 cbr 1000 ------- 0 0.1 1073741824.0 41 52
r 1.33808 0 2 cbr 1000 ------- 0 0.1 1073741824.0 41 52
r 1.33808 0 3 cbr 1000 ------- 0 0.1 1073741824.0 41 52
+ 1.344 0 4 cbr 1000 ------- 0 0.1 1073741824.0 43 54
- 1.344 0 4 cbr 1000 ------- 0 0.1 1073741824.0 43 54
+ 1.344 0 2 cbr 1000 ------- 0 0.1 1073741824.0 43 54
- 1.344 0 2 cbr 1000 ------- 0 0.1 1073741824.0 43 54
+ 1.344 0 3 cbr 1000 ------- 0 0.1 1073741824.0 43 54
- 1.344 0 3 cbr 1000 ------- 0 0.1 1073741824.0 43 54
r 1.34608 0 4 cbr 1000 ------- 0 0.1 1073741824.0 42 53
r 1.34608 0 2 cbr 1000 ------- 0 0.1 1073741824.0 42 53
r 1.34608 0 3 cbr 1000 ------- 0 0.1 1073741824.0 42 53
+ 1.352 0 4 cbr 1000 ------- 0 0.1 1073741824.0 44 55
- 1.352 0 4 cbr 1000 ------- 0 0.1 1073741824.0 44 55
+ 1.352 0 2 cbr 1000 ------- 0 0.1 1073741824.0 44 55
- 1.352 0 2 cbr 1000 ------- 0 0.1 1073741824.0 44 55
+ 1.352 0 3 cbr 1000 ------- 0 0.1 1073741824.0 44 55
- 1.352 0 3 cbr 1000 ------- 0 0.1 1073741824.0 44 55
r 1.35408 0 4 cbr 1000 ------- 0 0.1 1073741824.0 43 54
r 1.35408 0 2 cbr 1000 ------- 0 0.1 1073741824.0 43 54
r 1.35408 0 3 cbr 1000 ------- 0 0.1 1073741824.0 43 54
+ 1.36 0 4 cbr 1000 ------- 0 0.1 1073741824.0 45 56
- 1.36 0 4 cbr 1000 ------- 0 0.1 1073741824.0 45 56
+ 1.36 0 2 cbr 1000 ------- 0 0.1 1073741824.0 45 56
- 1.36 0 2 cbr 1000 ------- 0 0.1 1073741824.0 45 56
+ 1.36 0 3 cbr 1000 ------- 0 0.1 1073741824.0 45 56
- 1.36 0 3 cbr 1000 ------- 0 0.1 1073741824.0 45 56
r 1.36208 0 4 cbr 1000 ------- 0 0.1 1073741824.0 44 55
r 1.36208 0 2 cbr 1000 ------- 0 0.1 1073741824.0 44 55
r 1.36208 0 3 cbr 1000 ------- 0 0.1 1073741824.0 44 55
+ 1.368 0 4 cbr 1000 ------- 0 0.1 1073741824.0 46 57
- 1.368 0 4 cbr 1000 ------- 0 0.1 1073741824.0 46 57
+ 1.368 0 2 cbr 1000 ------- 0 0.1 1073741824.0 46 57
- 1.368 0 2 cbr 1000 ------- 0 0.1 1073741824.0 46 57
+ 1.368 0 3 cbr 1000 ------- 0 0.1 1073741824.0 46 57
- 1.368 0 3 cbr 1000 ------- 0 0.1 1073741824.0 46 57
r 1.37008 0 4 cbr 1000 ------- 0 0.1 1073741824.0 45 56
r 1.37008 0 2 cbr 1000 ------- 0 0.1 1073741824.0 45 56
r 1.37008 0 3 cbr 1000 ------- 0 0.1 1073741824.0 45 56
+ 1.376 0 4 cbr 1000 ------- 0 0.1 1073741824.0 47 58
- 1.376 0 4 cbr 1000 ------- 0 0.1 1073741824.0 47 58
+ 1.376 0 2 cbr 1000 ------- 0 0.1 1073741824.0 47 58
- 1.376 0 2 cbr 1000 ------- 0 0.1 1073741824.0 47 58
+ 1.376 0 3 cbr 1000 ------- 0 0.1 1073741824.0 47 58
- 1.376 0 3 cbr 1000 ------- 0 0.1 1073741824.0 47 58
r 1.37808 0 4 cbr 1000 ------- 0 0.1 1073741824.0 46 57
r 1.37808 0 2 cbr 1000 ------- 0 0.1 1073741824.0 46 57
r 1.37808 0 3 cbr 1000 ------- 0 0.1 1073741824.0 46 57
+ 1.384 0 4 cbr 1000 ------- 0 0.1 1073741824.0 48 59
- 1.384 0 4 cbr 1000 ------- 0 0.1 1073741824.0 48 59
+ 1.384 0 2 cbr 1000 ------- 0 0.1 1073741824.0 48 59
- 1.384 0 2 cbr 1000 ------- 0 0.1 1073741824.0 48 59
+ 1.384 0 3 cbr 1000 ------- 0 0.1 1073741824.0 48 59
- 1.384 0 3 cbr 1000 ------- 0 0.1 1073741824.0 48 59
r 1.38608 0 4 cbr 1000 ------- 0 0.1 1073741824.0 47 58
r 1.38608 0 2 cbr 1000 ------- 0 0.1 1073741824.0 47 58
r 1.38608 0 3 cbr 1000 ------- 0 0.1 1073741824.0 47 58
+ 1.392 0 4 cbr 1000 ------- 0 0.1 1073741824.0 49 60
- 1.392 0 4 cbr 1000 ------- 0 0.1 1073741824.0 49 60
+ 1.392 0 2 cbr 1000 ------- 0 0.1 1073741824.0 49 60
- 1.392 0 2 cbr 1000 ------- 0 0.1 1073741824.0 49 60
+ 1.392 0 3 cbr 1000 ------- 0 0.1 1073741824.0 49 60
- 1.392 0 3 cbr 1000 ------- 0 0.1 1073741824.0 49 60
r 1.39408 0 4 cbr 1000 ------- 0 0.1 1073741824.0 48 59
r 1.39408 0 2 cbr 1000 ------- 0 0.1 1073741824.0 48 59
r 1.39408 0 3 cbr 1000 ------- 0 0.1 1073741824.0 48 59
+ 1.4 0 4 cbr 1000 ------- 0 0.1 1073741824.0 50 61
- 1.4 0 4 cbr 1000 ------- 0 0.1 1073741824.0 50 61
+ 1.4 0 2 cbr 1000 ------- 0 0.1 1073741824.0 50 61
- 1.4 0 2 cbr 1000 ------- 0 0.1 1073741824.0 50 61
+ 1.4 0 3 cbr 1000 ------- 0 0.1 1073741824.0 50 61
- 1.4 0 3 cbr 1000 ------- 0 0.1 1073741824.0 50 61
r 1.40208 0 4 cbr 1000 ------- 0 0.1 1073741824.0 49 60
r 1.40208 0 2 cbr 1000 ------- 0 0.1 1073741824.0 49 60
r 1.40208 0 3 cbr 1000 ------- 0 0.1 1073741824.0 49 60
+ 1.408 0 4 cbr 1000 ------- 0 0.1 1073741824.0 51 62
- 1.408 0 4 cbr 1000 ------- 0 0.1 1073741824.0 51 62
+ 1.408 0 2 cbr 1000 ------- 0 0.1 1073741824.0 51 62
- 1.408 0 2 cbr 1000 ------- 0 0.1 1073741824.0 51 62
+ 1.408 0 3 cbr 1000 ------- 0 0.1 1073741824.0 51 62
- 1.408 0 3 cbr 1000 ------- 0 0.1 1073741824.0 51 62
r 1.41008 0 4 cbr 1000 ------- 0 0.1 1073741824.0 50 61
r 1.41008 0 2 cbr 1000 ------- 0 0.1 1073741824.0 50 61
r 1.41008 0 3 cbr 1000 ------- 0 0.1 1073741824.0 50 61
+ 1.416 0 4 cbr 1000 ------- 0 0.1 1073741824.0 52 63
- 1.416 0 4 cbr 1000 ------- 0 0.1 1073741824.0 52 63
+ 1.416 0 2 cbr 1000 ------- 0 0.1 1073741824.0 52 63
- 1.416 0 2 cbr 1000 ------- 0 0.1 1073741824.0 52 63
+ 1.416 0 3 cbr 1000 ------- 0 0.1 1073741824.0 52 63
- 1.416 0 3 cbr 1000 ------- 0 0.1 1073741824.0 52 63
r 1.41808 0 4 cbr 1000 ------- 0 0.1 1073741824.0 51 62
r 1.41808 0 2 cbr 1000 ------- 0 0.1 1073741824.0 51 62
r 1.41808 0 3 cbr 1000 ------- 0 0.1 1073741824.0 51 62
+ 1.424 0 4 cbr 1000 ------- 0 0.1 1073741824.0 53 64
- 1.424 0 4 cbr 1000 ------- 0 0.1 1073741824.0 53 64
+ 1.424 0 2 cbr 1000 ------- 0 0.1 1073741824.0 53 64
- 1.424 0 2 cbr 1000 ------- 0 0.1 1073741824.0 53 64
+ 1.424 0 3 cbr 1000 ------- 0 0.1 1073741824.0 53 64
- 1.424 0 3 cbr 1000 ------- 0 0.1 1073741824.0 53 64
r 1.42608 0 4 cbr 1000 ------- 0 0.1 1073741824.0 52 63
r 1.42608 0 2 cbr 1000 ------- 0 0.1 1073741824.0 52 63
r 1.42608 0 3 cbr 1000 ------- 0 0.1 1073741824.0 52 63
+ 1.432 0 4 cbr 1000 ------- 0 0.1 1073741824.0 54 65
- 1.432 0 4 cbr 1000 ------- 0 0.1 1073741824.0 54 65
+ 1.432 0 2 cbr 1000 ------- 0 0.1 1073741824.0 54 65
- 1.432 0 2 cbr 1000 ------- 0 0.1 1073741824.0 54 65
+ 1.432 0 3 cbr 1000 ------- 0 0.1 1073741824.0 54 65
- 1.432 0 3 cbr 1000 ------- 0 0.1 1073741824.0 54 65
r 1.43408 0 4 cbr 1000 ------- 0 0.1 1073741824.0 53 64
r 1.43408 0 2 cbr 1000 ------- 0 0.1 1073741824.0 53 64
r 1.43408 0 3 cbr 1000 ------- 0 0.1 1073741824.0 53 64
+ 1.44 0 4 cbr 1000 ------- 0 0.1 1073741824.0 55 66
- 1.44 0 4 cbr 1000 ------- 0 0.1 1073741824.0 55 66
+ 1.44 0 2 cbr 1000 ------- 0 0.1 1073741824.0 55 66
- 1.44 0 2 cbr 1000 ------- 0 0.1 1073741824.0 55 66
+ 1.44 0 3 cbr 1000 ------- 0 0.1 1073741824.0 55 66
- 1.44 0 3 cbr 1000 ------- 0 0.1 1073741824.0 55 66
r 1.44208 0 4 cbr 1000 ------- 0 0.1 1073741824.0 54 65
r 1.44208 0 2 cbr 1000 ------- 0 0.1 1073741824.0 54 65
r 1.44208 0 3 cbr 1000 ------- 0 0.1 1073741824.0 54 65
+ 1.448 0 4 cbr 1000 ------- 0 0.1 1073741824.0 56 67
- 1.448 0 4 cbr 1000 ------- 0 0.1 1073741824.0 56 67
+ 1.448 0 2 cbr 1000 ------- 0 0.1 1073741824.0 56 67
- 1.448 0 2 cbr 1000 ------- 0 0.1 1073741824.0 56 67
+ 1.448 0 3 cbr 1000 ------- 0 0.1 1073741824.0 56 67
- 1.448 0 3 cbr 1000 ------- 0 0.1 1073741824.0 56 67
r 1.45008 0 4 cbr 1000 ------- 0 0.1 1073741824.0 55 66
r 1.45008 0 2 cbr 1000 ------- 0 0.1 1073741824.0 55 66
r 1.45008 0 3 cbr 1000 ------- 0 0.1 1073741824.0 55 66
+ 1.456 0 4 cbr 1000 ------- 0 0.1 1073741824.0 57 68
- 1.456 0 4 cbr 1000 ------- 0 0.1 1073741824.0 57 68
+ 1.456 0 2 cbr 1000 ------- 0 0.1 1073741824.0 57 68
- 1.456 0 2 cbr 1000 ------- 0 0.1 1073741824.0 57 68
+ 1.456 0 3 cbr 1000 ------- 0 0.1 1073741824.0 57 68
- 1.456 0 3 cbr 1000 ------- 0 0.1 1073741824.0 57 68
r 1.45808 0 4 cbr 1000 ------- 0 0.1 1073741824.0 56 67
r 1.45808 0 2 cbr 1000 ------- 0 0.1 1073741824.0 56 67
r 1.45808 0 3 cbr 1000 ------- 0 0.1 1073741824.0 56 67
+ 1.464 0 4 cbr 1000 ------- 0 0.1 1073741824.0 58 69
- 1.464 0 4 cbr 1000 ------- 0 0.1 1073741824.0 58 69
+ 1.464 0 2 cbr 1000 ------- 0 0.1 1073741824.0 58 69
- 1.464 0 2 cbr 1000 ------- 0 0.1 1073741824.0 58 69
+ 1.464 0 3 cbr 1000 ------- 0 0.1 1073741824.0 58 69
- 1.464 0 3 cbr 1000 ------- 0 0.1 1073741824.0 58 69
r 1.46608 0 4 cbr 1000 ------- 0 0.1 1073741824.0 57 68
r 1.46608 0 2 cbr 1000 ------- 0 0.1 1073741824.0 57 68
r 1.46608 0 3 cbr 1000 ------- 0 0.1 1073741824.0 57 68
+ 1.472 0 4 cbr 1000 ------- 0 0.1 1073741824.0 59 70
- 1.472 0 4 cbr 1000 ------- 0 0.1 1073741824.0 59 70
+ 1.472 0 2 cbr 1000 ------- 0 0.1 1073741824.0 59 70
- 1.472 0 2 cbr 1000 ------- 0 0.1 1073741824.0 59 70
+ 1.472 0 3 cbr 1000 ------- 0 0.1 1073741824.0 59 70
- 1.472 0 3 cbr 1000 ------- 0 0.1 1073741824.0 59 70
r 1.47408 0 4 cbr 1000 ------- 0 0.1 1073741824.0 58 69
r 1.47408 0 2 cbr 1000 ------- 0 0.1 1073741824.0 58 69
r 1.47408 0 3 cbr 1000 ------- 0 0.1 1073741824.0 58 69
+ 1.48 0 4 cbr 1000 ------- 0 0.1 1073741824.0 60 71
- 1.48 0 4 cbr 1000 ------- 0 0.1 1073741824.0 60 71
+ 1.48 0 2 cbr 1000 ------- 0 0.1 1073741824.0 60 71
- 1.48 0 2 cbr 1000 ------- 0 0.1 1073741824.0 60 71
+ 1.48 0 3 cbr 1000 ------- 0 0.1 1073741824.0 60 71
- 1.48 0 3 cbr 1000 ------- 0 0.1 1073741824.0 60 71
r 1.48208 0 4 cbr 1000 ------- 0 0.1 1073741824.0 59 70
r 1.48208 0 2 cbr 1000 ------- 0 0.1 1073741824.0 59 70
r 1.48208 0 3 cbr 1000 ------- 0 0.1 1073741824.0 59 70
+ 1.488 0 4 cbr 1000 ------- 0 0.1 1073741824.0 61 72
- 1.488 0 4 cbr 1000 ------- 0 0.1 1073741824.0 61 72
+ 1.488 0 2 cbr 1000 ------- 0 0.1 1073741824.0 61 72
- 1.488 0 2 cbr 1000 ------- 0 0.1 1073741824.0 61 72
+ 1.488 0 3 cbr 1000 ------- 0 0.1 1073741824.0 61 72
- 1.488 0 3 cbr 1000 ------- 0 0.1 1073741824.0 61 72
r 1.49008 0 4 cbr 1000 ------- 0 0.1 1073741824.0 60 71
r 1.49008 0 2 cbr 1000 ------- 0 0.1 1073741824.0 60 71
r 1.49008 0 3 cbr 1000 ------- 0 0.1 1073741824.0 60 71
+ 1.496 0 4 cbr 1000 ------- 0 0.1 1073741824.0 62 73
- 1.496 0 4 cbr 1000 ------- 0 0.1 1073741824.0 62 73
+ 1.496 0 2 cbr 1000 ------- 0 0.1 1073741824.0 62 73
- 1.496 0 2 cbr 1000 ------- 0 0.1 1073741824.0 62 73
+ 1.496 0 3 cbr 1000 ------- 0 0.1 1073741824.0 62 73
- 1.496 0 3 cbr 1000 ------- 0 0.1 1073741824.0 62 73
r 1.49808 0 4 cbr 1000 ------- 0 0.1 1073741824.0 61 72
r 1.49808 0 2 cbr 1000 ------- 0 0.1 1073741824.0 61 72
r 1.49808 0 3 cbr 1000 ------- 0 0.1 1073741824.0 61 72
+ 1.504 0 4 cbr 1000 ------- 0 0.1 1073741824.0 63 74
- 1.504 0 4 cbr 1000 ------- 0 0.1 1073741824.0 63 74
+ 1.504 0 2 cbr 1000 ------- 0 0.1 1073741824.0 63 74
- 1.504 0 2 cbr 1000 ------- 0 0.1 1073741824.0 63 74
+ 1.504 0 3 cbr 1000 ------- 0 0.1 1073741824.0 63 74
- 1.504 0 3 cbr 1000 ------- 0 0.1 1073741824.0 63 74
r 1.50608 0 4 cbr 1000 ------- 0 0.1 1073741824.0 62 73
r 1.50608 0 2 cbr 1000 ------- 0 0.1 1073741824.0 62 73
r 1.50608 0 3 cbr 1000 ------- 0 0.1 1073741824.0 62 73
+ 1.512 0 4 cbr 1000 ------- 0 0.1 1073741824.0 64 75
- 1.512 0 4 cbr 1000 ------- 0 0.1 1073741824.0 64 75
+ 1.512 0 2 cbr 1000 ------- 0 0.1 1073741824.0 64 75
- 1.512 0 2 cbr 1000 ------- 0 0.1 1073741824.0 64 75
+ 1.512 0 3 cbr 1000 ------- 0 0.1 1073741824.0 64 75
- 1.512 0 3 cbr 1000 ------- 0 0.1 1073741824.0 64 75
r 1.51408 0 4 cbr 1000 ------- 0 0.1 1073741824.0 63 74
r 1.51408 0 2 cbr 1000 ------- 0 0.1 1073741824.0 63 74
r 1.51408 0 3 cbr 1000 ------- 0 0.1 1073741824.0 63 74
+ 1.52 0 4 cbr 1000 ------- 0 0.1 1073741824.0 65 76
- 1.52 0 4 cbr 1000 ------- 0 0.1 1073741824.0 65 76
+ 1.52 0 2 cbr 1000 ------- 0 0.1 1073741824.0 65 76
- 1.52 0 2 cbr 1000 ------- 0 0.1 1073741824.0 65 76
+ 1.52 0 3 cbr 1000 ------- 0 0.1 1073741824.0 65 76
- 1.52 0 3 cbr 1000 ------- 0 0.1 1073741824.0 65 76
r 1.52208 0 4 cbr 1000 ------- 0 0.1 1073741824.0 64 75
r 1.52208 0 2 cbr 1000 ------- 0 0.1 1073741824.0 64 75
r 1.52208 0 3 cbr 1000 ------- 0 0.1 1073741824.0 64 75
+ 1.528 0 4 cbr 1000 ------- 0 0.1 1073741824.0 66 77
- 1.528 0 4 cbr 1000 ------- 0 0.1 1073741824.0 66 77
+ 1.528 0 2 cbr 1000 ------- 0 0.1 1073741824.0 66 77
- 1.528 0 2 cbr 1000 ------- 0 0.1 1073741824.0 66 77
+ 1.528 0 3 cbr 1000 ------- 0 0.1 1073741824.0 66 77
- 1.528 0 3 cbr 1000 ------- 0 0.1 1073741824.0 66 77
r 1.53008 0 4 cbr 1000 ------- 0 0.1 1073741824.0 65 76
r 1.53008 0 2 cbr 1000 ------- 0 0.1 1073741824.0 65 76
r 1.53008 0 3 cbr 1000 ------- 0 0.1 1073741824.0 65 76
+ 1.536 0 4 cbr 1000 ------- 0 0.1 1073741824.0 67 78
- 1.536 0 4 cbr 1000 ------- 0 0.1 1073741824.0 67 78
+ 1.536 0 2 cbr 1000 ------- 0 0.1 1073741824.0 67 78
- 1.536 0 2 cbr 1000 ------- 0 0.1 1073741824.0 67 78
+ 1.536 0 3 cbr 1000 ------- 0 0.1 1073741824.0 67 78
- 1.536 0 3 cbr 1000 ------- 0 0.1 1073741824.0 67 78