V -t * -v 1.0a5 -a 0
A -t * -n 1 -p 0 -o 0x7fffffff -c 30 -a 1
A -t * -h 1 -m 1073741823 -s 0
n -t * -a 0 -s 0 -S UP -v circle -c black -i black
n -t * -a 1 -s 1 -S UP -v circle -c black -i black
n -t * -a 2 -s 2 -S UP -v circle -c black -i black
l -t * -s 0 -d 1 -S UP -r 200000 -D 0.01 -c black
l -t * -s 1 -d 2 -S UP -r 20000 -D 1 -c black
+ -t 0.1 -s 0 -d 1 -p cbr -e 100 -c 0 -i 0 -a 0 -x {0.0 2.0 0 ------- null}
- -t 0.1 -s 0 -d 1 -p cbr -e 100 -c 0 -i 0 -a 0 -x {0.0 2.0 0 ------- null}
h -t 0.1 -s 0 -d 1 -p cbr -e 100 -c 0 -i 0 -a 0 -x {0.0 2.0 -1 ------- null}
+ -t 0.1 -s 0 -d 1 -p cbr -e 100 -c 0 -i 1 -a 0 -x {0.0 2.0 1 ------- null}
+ -t 0.1 -s 0 -d 1 -p cbr -e 100 -c 0 -i 2 -a 0 -x {0.0 2.0 2 ------- null}
+ -t 0.1 -s 0 -d 1 -p cbr -e 100 -c 0 -i 3 -a 0 -x {0.0 2.0 3 ------- null}
+ -t 0.1 -s 0 -d 1 -p cbr -e 100 -c 0 -i 4 -a 0 -x {0.0 2.0 4 ------- null}
- -t 0.104 -s 0 -d 1 -p cbr -e 100 -c 0 -i 1 -a 0 -x {0.0 2.0 1 ------- null}
h -t 0.104 -s 0 -d 1 -p cbr -e 100 -c 0 -i 1 -a 0 -x {0.0 2.0 -1 ------- null}
+ -t 0.105 -s 0 -d 1 -p cbr -e 100 -c 0 -i 5 -a 0 -x {0.0 2.0 5 ------- null}
+ -t 0.105 -s 0 -d 1 -p cbr -e 100 -c 0 -i 6 -a 0 -x {0.0 2.0 6 ------- null}
+ -t 0.105 -s 0 -d 1 -p cbr -e 100 -c 0 -i 7 -a 0 -x {0.0 2.0 7 ------- null}
+ -t 0.105 -s 0 -d 1 -p cbr -e 100 -c 0 -i 8 -a 0 -x {0.0 2.0 8 ------- null}
+ -t 0.105 -s 0 -d 1 -p cbr -e 100 -c 0 -i 9 -a 0 -x {0.0 2.0 9 ------- null}
- -t 0.108 -s 0 -d 1 -p cbr -e 100 -c 0 -i 2 -a 0 -x {0.0 2.0 2 ------- null}
h -t 0.108 -s 0 -d 1 -p cbr -e 100 -c 0 -i 2 -a 0 -x {0.0 2.0 -1 ------- null}
+ -t 0.11 -s 0 -d 1 -p cbr -e 100 -c 0 -i 10 -a 0 -x {0.0 2.0 10 ------- null}
+ -t 0.11 -s 0 -d 1 -p cbr -e 100 -c 0 -i 11 -a 0 -x {0.0 2.0 11 ------- null}
+ -t 0.11 -s 0 -d 1 -p cbr -e 100 -c 0 -i 12 -a 0 -x {0.0 2.0 12 ------- null}
d -t 0.11 -s 0 -d 1 -p cbr -e 100 -c 0 -i 12 -a 0 -x {0.0 2.0 12 ------- null}
+ -t 0.11 -s 0 -d 1 -p cbr -e 100 -c 0 -i 13 -a 0 -x {0.0 2.0 13 ------- null}
d -t 0.11 -s 0 -d 1 -p cbr -e 100 -c 0 -i 13 -a 0 -x {0.0 2.0 13 ------- null}
+ -t 0.11 -s 0 -d 1 -p cbr -e 100 -c 0 -i 14 -a 0 -x {0.0 2.0 14 ------- null}
d -t 0.11 -s 0 -d 1 -p cbr -e 100 -c 0 -i 14 -a 0 -x {0.0 2.0 14 ------- null}
- -t 0.112 -s 0 -d 1 -p cbr -e 100 -c 0 -i 3 -a 0 -x {0.0 2.0 3 ------- null}
h -t 0.112 -s 0 -d 1 -p cbr -e 100 -c 0 -i 3 -a 0 -x {0.0 2.0 -1 ------- null}
r -t 0.114 -s 0 -d 1 -p cbr -e 100 -c 0 -i 0 -a 0 -x {0.0 2.0 0 ------- null}
+ -t 0.114 -s 1 -d 2 -p cbr -e 100 -c 0 -i 0 -a 0 -x {0.0 2.0 0 ------- null}
- -t 0.114 -s 1 -d 2 -p cbr -e 100 -c 0 -i 0 -a 0 -x {0.0 2.0 0 ------- null}
h -t 0.114 -s 1 -d 2 -p cbr -e 100 -c 0 -i 0 -a 0 -x {0.0 2.0 -1 ------- null}
+ -t 0.115 -s 0 -d 1 -p cbr -e 100 -c 0 -i 15 -a 0 -x {0.0 2.0 15 ------- null}
+ -t 0.115 -s 0 -d 1 -p cbr -e 100 -c 0 -i 16 -a 0 -x {0.0 2.0 16 ------- null}
d -t 0.115 -s 0 -d 1 -p cbr -e 100 -c 0 -i 16 -a 0 -x {0.0 2.0 16 ------- null}
+ -t 0.115 -s 0 -d 1 -p cbr -e 100 -c 0 -i 17 -a 0 -x {0.0 2.0 17 ------- null}
d -t 0.115 -s 0 -d 1 -p cbr -e 100 -c 0 -i 17 -a 0 -x {0.0 2.0 17 ------- null}
+ -t 0.115 -s 0 -d 1 -p cbr -e 100 -c 0 -i 18 -a 0 -x {0.0 2.0 18 ------- null}
d -t 0.115 -s 0 -d 1 -p cbr -e 100 -c 0 -i 18 -a 0 -x {0.0 2.0 18 ------- null}
+ -t 0.115 -s 0 -d 1 -p cbr -e 100 -c 0 -i 19 -a 0 -x {0.0 2.0 19 ------- null}
d -t 0.115 -s 0 -d 1 -p cbr -e 100 -c 0 -i 19 -a 0 -x {0.0 2.0 19 ------- null}
- -t 0.116 -s 0 -d 1 -p cbr -e 100 -c 0 -i 4 -a 0 -x {0.0 2.0 4 ------- null}
h -t 0.116 -s 0 -d 1 -p cbr -e 100 -c 0 -i 4 -a 0 -x {0.0 2.0 -1 ------- null}
r -t 0.118 -s 0 -d 1 -p cbr -e 100 -c 0 -i 1 -a 0 -x {0.0 2.0 1 ------- null}
+ -t 0.118 -s 1 -d 2 -p cbr -e 100 -c 0 -i 1 -a 0 -x {0.0 2.0 1 ------- null}
+ -t 0.12 -s 0 -d 1 -p cbr -e 100 -c 0 -i 20 -a 0 -x {0.0 2.0 20 ------- null}
+ -t 0.12 -s 0 -d 1 -p cbr -e 100 -c 0 -i 21 -a 0 -x {0.0 2.0 21 ------- null}
d -t 0.12 -s 0 -d 1 -p cbr -e 100 -c 0 -i 21 -a 0 -x {0.0 2.0 21 ------- null}
+ -t 0.12 -s 0 -d 1 -p cbr -e 100 -c 0 -i 22 -a 0 -x {0.0 2.0 22 ------- null}
d -t 0.12 -s 0 -d 1 -p cbr -e 100 -c 0 -i 22 -a 0 -x {0.0 2.0 22 ------- null}
+ -t 0.12 -s 0 -d 1 -p cbr -e 100 -c 0 -i 23 -a 0 -x {0.0 2.0 23 ------- null}
d -t 0.12 -s 0 -d 1 -p cbr -e 100 -c 0 -i 23 -a 0 -x {0.0 2.0 23 ------- null}
+ -t 0.12 -s 0 -d 1 -p cbr -e 100 -c 0 -i 24 -a 0 -x {0.0 2.0 24 ------- null}
d -t 0.12 -s 0 -d 1 -p cbr -e 100 -c 0 -i 24 -a 0 -x {0.0 2.0 24 ------- null}
- -t 0.12 -s 0 -d 1 -p cbr -e 100 -c 0 -i 5 -a 0 -x {0.0 2.0 5 ------- null}
h -t 0.12 -s 0 -d 1 -p cbr -e 100 -c 0 -i 5 -a 0 -x {0.0 2.0 -1 ------- null}
r -t 0.122 -s 0 -d 1 -p cbr -e 100 -c 0 -i 2 -a 0 -x {0.0 2.0 2 ------- null}
+ -t 0.122 -s 1 -d 2 -p cbr -e 100 -c 0 -i 2 -a 0 -x {0.0 2.0 2 ------- null}
- -t 0.124 -s 0 -d 1 -p cbr -e 100 -c 0 -i 6 -a 0 -x {0.0 2.0 6 ------- null}
h -t 0.124 -s 0 -d 1 -p cbr -e 100 -c 0 -i 6 -a 0 -x {0.0 2.0 -1 ------- null}
+ -t 0.125 -s 0 -d 1 -p cbr -e 100 -c 0 -i 25 -a 0 -x {0.0 2.0 25 ------- null}
+ -t 0.125 -s 0 -d 1 -p cbr -e 100 -c 0 -i 26 -a 0 -x {0.0 2.0 26 ------- null}
+ -t 0.125 -s 0 -d 1 -p cbr -e 100 -c 0 -i 27 -a 0 -x {0.0 2.0 27 ------- null}
d -t 0.125 -s 0 -d 1 -p cbr -e 100 -c 0 -i 27 -a 0 -x {0.0 2.0 27 ------- null}
+ -t 0.125 -s 0 -d 1 -p cbr -e 100 -c 0 -i 28 -a 0 -x {0.0 2.0 28 ------- null}
d -t 0.125 -s 0 -d 1 -p cbr -e 100 -c 0 -i 28 -a 0 -x {0.0 2.0 28 ------- null}
+ -t 0.125 -s 0 -d 1 -p cbr -e 100 -c 0 -i 29 -a 0 -x {0.0 2.0 29 ------- null}
d -t 0.125 -s 0 -d 1 -p cbr -e 100 -c 0 -i 29 -a 0 -x {0.0 2.0 29 ------- null}
r -t 0.126 -s 0 -d 1 -p cbr -e 100 -c 0 -i 3 -a 0 -x {0.0 2.0 3 ------- null}
+ -t 0.126 -s 1 -d 2 -p cbr -e 100 -c 0 -i 3 -a 0 -x {0.0 2.0 3 ------- null}
- -t 0.128 -s 0 -d 1 -p cbr -e 100 -c 0 -i 7 -a 0 -x {0.0 2.0 7 ------- null}
h -t 0.128 -s 0 -d 1 -p cbr -e 100 -c 0 -i 7 -a 0 -x {0.0 2.0 -1 ------- null}
r -t 0.13 -s 0 -d 1 -p cbr -e 100 -c 0 -i 4 -a 0 -x {0.0 2.0 4 ------- null}
+ -t 0.13 -s 1 -d 2 -p cbr -e 100 -c 0 -i 4 -a 0 -x {0.0 2.0 4 ------- null}
+ -t 0.13 -s 0 -d 1 -p cbr -e 100 -c 0 -i 30 -a 0 -x {0.0 2.0 30 ------- null}
+ -t 0.13 -s 0 -d 1 -p cbr -e 100 -c 0 -i 31 -a 0 -x {0.0 2.0 31 ------- null}
d -t 0.13 -s 0 -d 1 -p cbr -e 100 -c 0 -i 31 -a 0 -x {0.0 2.0 31 ------- null}
+ -t 0.13 -s 0 -d 1 -p cbr -e 100 -c 0 -i 32 -a 0 -x {0.0 2.0 32 ------- null}
d -t 0.13 -s 0 -d 1 -p cbr -e 100 -c 0 -i 32 -a 0 -x {0.0 2.0 32 ------- null}
+ -t 0.13 -s 0 -d 1 -p cbr -e 100 -c 0 -i 33 -a 0 -x {0.0 2.0 33 ------- null}
d -t 0.13 -s 0 -d 1 -p cbr -e 100 -c 0 -i 33 -a 0 -x {0.0 2.0 33 ------- null}
+ -t 0.13 -s 0 -d 1 -p cbr -e 100 -c 0 -i 34 -a 0 -x {0.0 2.0 34 ------- null}
d -t 0.13 -s 0 -d 1 -p cbr -e 100 -c 0 -i 34 -a 0 -x {0.0 2.0 34 ------- null}
- -t 0.132 -s 0 -d 1 -p cbr -e 100 -c 0 -i 8 -a 0 -x {0.0 2.0 8 ------- null}
h -t 0.132 -s 0 -d 1 -p cbr -e 100 -c 0 -i 8 -a 0 -x {0.0 2.0 -1 ------- null}
r -t 0.134 -s 0 -d 1 -p cbr -e 100 -c 0 -i 5 -a 0 -x {0.0 2.0 5 ------- null}
+ -t 0.134 -s 1 -d 2 -p cbr -e 100 -c 0 -i 5 -a 0 -x {0.0 2.0 5 ------- null}
+ -t 0.135 -s 0 -d 1 -p cbr -e 100 -c 0 -i 35 -a 0 -x {0.0 2.0 35 ------- null}
+ -t 0.135 -s 0 -d 1 -p cbr -e 100 -c 0 -i 36 -a 0 -x {0.0 2.0 36 ------- null}
d -t 0.135 -s 0 -d 1 -p cbr -e 100 -c 0 -i 36 -a 0 -x {0.0 2.0 36 ------- null}
+ -t 0.135 -s 0 -d 1 -p cbr -e 100 -c 0 -i 37 -a 0 -x {0.0 2.0 37 ------- null}
d -t 0.135 -s 0 -d 1 -p cbr -e 100 -c 0 -i 37 -a 0 -x {0.0 2.0 37 ------- null}
+ -t 0.135 -s 0 -d 1 -p cbr -e 100 -c 0 -i 38 -a 0 -x {0.0 2.0 38 ------- null}
d -t 0.135 -s 0 -d 1 -p cbr -e 100 -c 0 -i 38 -a 0 -x {0.0 2.0 38 ------- null}
+ -t 0.135 -s 0 -d 1 -p cbr -e 100 -c 0 -i 39 -a 0 -x {0.0 2.0 39 ------- null}
d -t 0.135 -s 0 -d 1 -p cbr -e 100 -c 0 -i 39 -a 0 -x {0.0 2.0 39 ------- null}
- -t 0.136 -s 0 -d 1 -p cbr -e 100 -c 0 -i 9 -a 0 -x {0.0 2.0 9 ------- null}
h -t 0.136 -s 0 -d 1 -p cbr -e 100 -c 0 -i 9 -a 0 -x {0.0 2.0 -1 ------- null}
r -t 0.138 -s 0 -d 1 -p cbr -e 100 -c 0 -i 6 -a 0 -x {0.0 2.0 6 ------- null}
+ -t 0.138 -s 1 -d 2 -p cbr -e 100 -c 0 -i 6 -a 0 -x {0.0 2.0 6 ------- null}
+ -t 0.14 -s 0 -d 1 -p cbr -e 100 -c 0 -i 40 -a 0 -x {0.0 2.0 40 ------- null}
+ -t 0.14 -s 0 -d 1 -p cbr -e 100 -c 0 -i 41 -a 0 -x {0.0 2.0 41 ------- null}
d -t 0.14 -s 0 -d 1 -p cbr -e 100 -c 0 -i 41 -a 0 -x {0.0 2.0 41 ------- null}
+ -t 0.14 -s 0 -d 1 -p cbr -e 100 -c 0 -i 42 -a 0 -x {0.0 2.0 42 ------- null}
d -t 0.14 -s 0 -d 1 -p cbr -e 100 -c 0 -i 42 -a 0 -x {0.0 2.0 42 ------- null}
+ -t 0.14 -s 0 -d 1 -p cbr -e 100 -c 0 -i 43 -a 0 -x {0.0 2.0 43 ------- null}
d -t 0.14 -s 0 -d 1 -p cbr -e 100 -c 0 -i 43 -a 0 -x {0.0 2.0 43 ------- null}
+ -t 0.14 -s 0 -d 1 -p cbr -e 100 -c 0 -i 44 -a 0 -x {0.0 2.0 44 ------- null}
d -t 0.14 -s 0 -d 1 -p cbr -e 100 -c 0 -i 44 -a 0 -x {0.0 2.0 44 ------- null}
- -t 0.14 -s 0 -d 1 -p cbr -e 100 -c 0 -i 10 -a 0 -x {0.0 2.0 10 ------- null}
h -t 0.14 -s 0 -d 1 -p cbr -e 100 -c 0 -i 10 -a 0 -x {0.0 2.0 -1 ------- null}
r -t 0.142 -s 0 -d 1 -p cbr -e 100 -c 0 -i 7 -a 0 -x {0.0 2.0 7 ------- null}
+ -t 0.142 -s 1 -d 2 -p cbr -e 100 -c 0 -i 7 -a 0 -x {0.0 2.0 7 ------- null}
- -t 0.144 -s 0 -d 1 -p cbr -e 100 -c 0 -i 11 -a 0 -x {0.0 2.0 11 ------- null}
h -t 0.144 -s 0 -d 1 -p cbr -e 100 -c 0 -i 11 -a 0 -x {0.0 2.0 -1 ------- null}
+ -t 0.145 -s 0 -d 1 -p cbr -e 100 -c 0 -i 45 -a 0 -x {0.0 2.0 45 ------- null}
+ -t 0.145 -s 0 -d 1 -p cbr -e 100 -c 0 -i 46 -a 0 -x {0.0 2.0 46 ------- null}
+ -t 0.145 -s 0 -d 1 -p cbr -e 100 -c 0 -i 47 -a 0 -x {0.0 2.0 47 ------- null}
d -t 0.145 -s 0 -d 1 -p cbr -e 100 -c 0 -i 47 -a 0 -x {0.0 2.0 47 ------- null}
+ -t 0.145 -s 0 -d 1 -p cbr -e 100 -c 0 -i 48 -a 0 -x {0.0 2.0 48 ------- null}
d -t 0.145 -s 0 -d 1 -p cbr -e 100 -c 0 -i 48 -a 0 -x {0.0 2.0 48 ------- null}
+ -t 0.145 -s 0 -d 1 -p cbr -e 100 -c 0 -i 49 -a 0 -x {0.0 2.0 49 ------- null}
d -t 0.145 -s 0 -d 1 -p cbr -e 100 -c 0 -i 49 -a 0 -x {0.0 2.0 49 ------- null}
r -t 0.146 -s 0 -d 1 -p cbr -e 100 -c 0 -i 8 -a 0 -x {0.0 2.0 8 ------- null}
+ -t 0.146 -s 1 -d 2 -p cbr -e 100 -c 0 -i 8 -a 0 -x {0.0 2.0 8 ------- null}
- -t 0.148 -s 0 -d 1 -p cbr -e 100 -c 0 -i 15 -a 0 -x {0.0 2.0 15 ------- null}
h -t 0.148 -s 0 -d 1 -p cbr -e 100 -c 0 -i 15 -a 0 -x {0.0 2.0 -1 ------- null}
r -t 0.15 -s 0 -d 1 -p cbr -e 100 -c 0 -i 9 -a 0 -x {0.0 2.0 9 ------- null}
+ -t 0.15 -s 1 -d 2 -p cbr -e 100 -c 0 -i 9 -a 0 -x {0.0 2.0 9 ------- null}
+ -t 0.15 -s 0 -d 1 -p cbr -e 100 -c 0 -i 50 -a 0 -x {0.0 2.0 50 ------- null}
+ -t 0.15 -s 0 -d 1 -p cbr -e 100 -c 0 -i 51 -a 0 -x {0.0 2.0 51 ------- null}
d -t 0.15 -s 0 -d 1 -p cbr -e 100 -c 0 -i 51 -a 0 -x {0.0 2.0 51 ------- null}
+ -t 0.15 -s 0 -d 1 -p cbr -e 100 -c 0 -i 52 -a 0 -x {0.0 2.0 52 ------- null}
d -t 0.15 -s 0 -d 1 -p cbr -e 100 -c 0 -i 52 -a 0 -x {0.0 2.0 52 ------- null}
+ -t 0.15 -s 0 -d 1 -p cbr -e 100 -c 0 -i 53 -a 0 -x {0.0 2.0 53 ------- null}
d -t 0.15 -s 0 -d 1 -p cbr -e 100 -c 0 -i 53 -a 0 -x {0.0 2.0 53 ------- null}
+ -t 0.15 -s 0 -d 1 -p cbr -e 100 -c 0 -i 54 -a 0 -x {0.0 2.0 54 ------- null}
d -t 0.15 -s 0 -d 1 -p cbr -e 100 -c 0 -i 54 -a 0 -x {0.0 2.0 54 ------- null}
- -t 0.152 -s 0 -d 1 -p cbr -e 100 -c 0 -i 20 -a 0 -x {0.0 2.0 20 ------- null}
h -t 0.152 -s 0 -d 1 -p cbr -e 100 -c 0 -i 20 -a 0 -x {0.0 2.0 -1 ------- null}
- -t 0.154 -s 1 -d 2 -p cbr -e 100 -c 0 -i 1 -a 0 -x {0.0 2.0 1 ------- null}
h -t 0.154 -s 1 -d 2 -p cbr -e 100 -c 0 -i 1 -a 0 -x {0.0 2.0 -1 ------- null}
r -t 0.154 -s 0 -d 1 -p cbr -e 100 -c 0 -i 10 -a 0 -x {0.0 2.0 10 ------- null}
+ -t 0.154 -s 1 -d 2 -p cbr -e 100 -c 0 -i 10 -a 0 -x {0.0 2.0 10 ------- null}
+ -t 0.155 -s 0 -d 1 -p cbr -e 100 -c 0 -i 55 -a 0 -x {0.0 2.0 55 ------- null}
+ -t 0.155 -s 0 -d 1 -p cbr -e 100 -c 0 -i 56 -a 0 -x {0.0 2.0 56 ------- null}
d -t 0.155 -s 0 -d 1 -p cbr -e 100 -c 0 -i 56 -a 0 -x {0.0 2.0 56 ------- null}
+ -t 0.155 -s 0 -d 1 -p cbr -e 100 -c 0 -i 57 -a 0 -x {0.0 2.0 57 ------- null}
d -t 0.155 -s 0 -d 1 -p cbr -e 100 -c 0 -i 57 -a 0 -x {0.0 2.0 57 ------- null}
+ -t 0.155 -s 0 -d 1 -p cbr -e 100 -c 0 -i 58 -a 0 -x {0.0 2.0 58 ------- null}
d -t 0.155 -s 0 -d 1 -p cbr -e 100 -c 0 -i 58 -a 0 -x {0.0 2.0 58 ------- null}
+ -t 0.155 -s 0 -d 1 -p cbr -e 100 -c 0 -i 59 -a 0 -x {0.0 2.0 59 ------- null}
d -t 0.155 -s 0 -d 1 -p cbr -e 100 -c 0 -i 59 -a 0 -x {0.0 2.0 59 ------- null}
- -t 0.156 -s 0 -d 1 -p cbr -e 100 -c 0 -i 25 -a 0 -x {0.0 2.0 25 ------- null}
h -t 0.156 -s 0 -d 1 -p cbr -e 100 -c 0 -i 25 -a 0 -x {0.0 2.0 -1 ------- null}
r -t 0.158 -s 0 -d 1 -p cbr -e 100 -c 0 -i 11 -a 0 -x {0.0 2.0 11 ------- null}
+ -t 0.158 -s 1 -d 2 -p cbr -e 100 -c 0 -i 11 -a 0 -x {0.0 2.0 11 ------- null}
+ -t 0.16 -s 0 -d 1 -p cbr -e 100 -c 0 -i 60 -a 0 -x {0.0 2.0 60 ------- null}
+ -t 0.16 -s 0 -d 1 -p cbr -e 100 -c 0 -i 61 -a 0 -x {0.0 2.0 61 ------- null}
d -t 0.16 -s 0 -d 1 -p cbr -e 100 -c 0 -i 61 -a 0 -x {0.0 2.0 61 ------- null}
+ -t 0.16 -s 0 -d 1 -p cbr -e 100 -c 0 -i 62 -a 0 -x {0.0 2.0 62 ------- null}
d -t 0.16 -s 0 -d 1 -p cbr -e 100 -c 0 -i 62 -a 0 -x {0.0 2.0 62 ------- null}
+ -t 0.16 -s 0 -d 1 -p cbr -e 100 -c 0 -i 63 -a 0 -x {0.0 2.0 63 ------- null}
d -t 0.16 -s 0 -d 1 -p cbr -e 100 -c 0 -i 63 -a 0 -x {0.0 2.0 63 ------- null}
+ -t 0.16 -s 0 -d 1 -p cbr -e 100 -c 0 -i 64 -a 0 -x {0.0 2.0 64 ------- null}
d -t 0.16 -s 0 -d 1 -p cbr -e 100 -c 0 -i 64 -a 0 -x {0.0 2.0 64 ------- null}
- -t 0.16 -s 0 -d 1 -p cbr -e 100 -c 0 -i 26 -a 0 -x {0.0 2.0 26 ------- null}
h -t 0.16 -s 0 -d 1 -p cbr -e 100 -c 0 -i 26 -a 0 -x {0.0 2.0 -1 ------- null}
r -t 0.162 -s 0 -d 1 -p cbr -e 100 -c 0 -i 15 -a 0 -x {0.0 2.0 15 ------- null}
+ -t 0.162 -s 1 -d 2 -p cbr -e 100 -c 0 -i 15 -a 0 -x {0.0 2.0 15 ------- null}
- -t 0.164 -s 0 -d 1 -p cbr -e 100 -c 0 -i 30 -a 0 -x {0.0 2.0 30 ------- null}
h -t 0.164 -s 0 -d 1 -p cbr -e 100 -c 0 -i 30 -a 0 -x {0.0 2.0 -1 ------- null}
+ -t 0.165 -s 0 -d 1 -p cbr -e 100 -c 0 -i 65 -a 0 -x {0.0 2.0 65 ------- null}
+ -t 0.165 -s 0 -d 1 -p cbr -e 100 -c 0 -i 66 -a 0 -x {0.0 2.0 66 ------- null}
+ -t 0.165 -s 0 -d 1 -p cbr -e 100 -c 0 -i 67 -a 0 -x {0.0 2.0 67 ------- null}
d -t 0.165 -s 0 -d 1 -p cbr -e 100 -c 0 -i 67 -a 0 -x {0.0 2.0 67 ------- null}
+ -t 0.165 -s 0 -d 1 -p cbr -e 100 -c 0 -i 68 -a 0 -x {0.0 2.0 68 ------- null}
d -t 0.165 -s 0 -d 1 -p cbr -e 100 -c 0 -i 68 -a 0 -x {0.0 2.0 68 ------- null}
+ -t 0.165 -s 0 -d 1 -p cbr -e 100 -c 0 -i 69 -a 0 -x {0.0 2.0 69 ------- null}
d -t 0.165 -s 0 -d 1 -p cbr -e 100 -c 0 -i 69 -a 0 -x {0.0 2.0 69 ------- null}
r -t 0.166 -s 0 -d 1 -p cbr -e 100 -c 0 -i 20 -a 0 -x {0.0 2.0 20 ------- null}
+ -t 0.166 -s 1 -d 2 -p cbr -e 100 -c 0 -i 20 -a 0 -x {0.0 2.0 20 ------- null}
- -t 0.168 -s 0 -d 1 -p cbr -e 100 -c 0 -i 35 -a 0 -x {0.0 2.0 35 ------- null}
h -t 0.168 -s 0 -d 1 -p cbr -e 100 -c 0 -i 35 -a 0 -x {0.0 2.0 -1 ------- null}
r -t 0.17 -s 0 -d 1 -p cbr -e 100 -c 0 -i 25 -a 0 -x {0.0 2.0 25 ------- null}
+ -t 0.17 -s 1 -d 2 -p cbr -e 100 -c 0 -i 25 -a 0 -x {0.0 2.0 25 ------- null}
+ -t 0.17 -s 0 -d 1 -p cbr -e 100 -c 0 -i 70 -a 0 -x {0.0 2.0 70 ------- null}
+ -t 0.17 -s 0 -d 1 -p cbr -e 100 -c 0 -i 71 -a 0 -x {0.0 2.0 71 ------- null}
d -t 0.17 -s 0 -d 1 -p cbr -e 100 -c 0 -i 71 -a 0 -x {0.0 2.0 71 ------- null}
+ -t 0.17 -s 0 -d 1 -p cbr -e 100 -c 0 -i 72 -a 0 -x {0.0 2.0 72 ------- null}
d -t 0.17 -s 0 -d 1 -p cbr -e 100 -c 0 -i 72 -a 0 -x {0.0 2.0 72 ------- null}
+ -t 0.17 -s 0 -d 1 -p cbr -e 100 -c 0 -i 73 -a 0 -x {0.0 2.0 73 ------- null}
d -t 0.17 -s 0 -d 1 -p cbr -e 100 -c 0 -i 73 -a 0 -x {0.0 2.0 73 ------- null}
+ -t 0.17 -s 0 -d 1 -p cbr -e 100 -c 0 -i 74 -a 0 -x {0.0 2.0 74 ------- null}
d -t 0.17 -s 0 -d 1 -p cbr -e 100 -c 0 -i 74 -a 0 -x {0.0 2.0 74 ------- null}
- -t 0.172 -s 0 -d 1 -p cbr -e 100 -c 0 -i 40 -a 0 -x {0.0 2.0 40 ------- null}
h -t 0.172 -s 0 -d 1 -p cbr -e 100 -c 0 -i 40 -a 0 -x {0.0 2.0 -1 ------- null}
r -t 0.174 -s 0 -d 1 -p cbr -e 100 -c 0 -i 26 -a 0 -x {0.0 2.0 26 ------- null}
+ -t 0.174 -s 1 -d 2 -p cbr -e 100 -c 0 -i 26 -a 0 -x {0.0 2.0 26 ------- null}
+ -t 0.175 -s 0 -d 1 -p cbr -e 100 -c 0 -i 75 -a 0 -x {0.0 2.0 75 ------- null}
+ -t 0.175 -s 0 -d 1 -p cbr -e 100 -c 0 -i 76 -a 0 -x {0.0 2.0 76 ------- null}
d -t 0.175 -s 0 -d 1 -p cbr -e 100 -c 0 -i 76 -a 0 -x {0.0 2.0 76 ------- null}
+ -t 0.175 -s 0 -d 1 -p cbr -e 100 -c 0 -i 77 -a 0 -x {0.0 2.0 77 ------- null}
d -t 0.175 -s 0 -d 1 -p cbr -e 100 -c 0 -i 77 -a 0 -x {0.0 2.0 77 ------- null}
+ -t 0.175 -s 0 -d 1 -p cbr -e 100 -c 0 -i 78 -a 0 -x {0.0 2.0 78 ------- null}
d -t 0.175 -s 0 -d 1 -p cbr -e 100 -c 0 -i 78 -a 0 -x {0.0 2.0 78 ------- null}
+ -t 0.175 -s 0 -d 1 -p cbr -e 100 -c 0 -i 79 -a 0 -x {0.0 2.0 79 ------- null}
d -t 0.175 -s 0 -d 1 -p cbr -e 100 -c 0 -i 79 -a 0 -x {0.0 2.0 79 ------- null}
- -t 0.176 -s 0 -d 1 -p cbr -e 100 -c 0 -i 45 -a 0 -x {0.0 2.0 45 ------- null}
h -t 0.176 -s 0 -d 1 -p cbr -e 100 -c 0 -i 45 -a 0 -x {0.0 2.0 -1 ------- null}
r -t 0.178 -s 0 -d 1 -p cbr -e 100 -c 0 -i 30 -a 0 -x {0.0 2.0 30 ------- null}
+ -t 0.178 -s 1 -d 2 -p cbr -e 100 -c 0 -i 30 -a 0 -x {0.0 2.0 30 ------- null}
+ -t 0.18 -s 0 -d 1 -p cbr -e 100 -c 0 -i 80 -a 0 -x {0.0 2.0 80 ------- null}
+ -t 0.18 -s 0 -d 1 -p cbr -e 100 -c 0 -i 81 -a 0 -x {0.0 2.0 81 ------- null}
d -t 0.18 -s 0 -d 1 -p cbr -e 100 -c 0 -i 81 -a 0 -x {0.0 2.0 81 ------- null}
+ -t 0.18 -s 0 -d 1 -p cbr -e 100 -c 0 -i 82 -a 0 -x {0.0 2.0 82 ------- null}
d -t 0.18 -s 0 -d 1 -p cbr -e 100 -c 0 -i 82 -a 0 -x {0.0 2.0 82 ------- null}
+ -t 0.18 -s 0 -d 1 -p cbr -e 100 -c 0 -i 83 -a 0 -x {0.0 2.0 83 ------- null}
d -t 0.18 -s 0 -d 1 -p cbr -e 100 -c 0 -i 83 -a 0 -x {0.0 2.0 83 ------- null}
+ -t 0.18 -s 0 -d 1 -p cbr -e 100 -c 0 -i 84 -a 0 -x {0.0 2.0 84 ------- null}
d -t 0.18 -s 0 -d 1 -p cbr -e 100 -c 0 -i 84 -a 0 -x {0.0 2.0 84 ------- null}
- -t 0.18 -s 0 -d 1 -p cbr -e 100 -c 0 -i 46 -a 0 -x {0.0 2.0 46 ------- null}
h -t 0.18 -s 0 -d 1 -p cbr -e 100 -c 0 -i 46 -a 0 -x {0.0 2.0 -1 ------- null}
r -t 0.182 -s 0 -d 1 -p cbr -e 100 -c 0 -i 35 -a 0 -x {0.0 2.0 35 ------- null}
+ -t 0.182 -s 1 -d 2 -p cbr -e 100 -c 0 -i 35 -a 0 -x {0.0 2.0 35 ------- null}
- -t 0.184 -s 0 -d 1 -p cbr -e 100 -c 0 -i 50 -a 0 -x {0.0 2.0 50 ------- null}
h -t 0.184 -s 0 -d 1 -p cbr -e 100 -c 0 -i 50 -a 0 -x {0.0 2.0 -1 ------- null}
+ -t 0.185 -s 0 -d 1 -p cbr -e 100 -c 0 -i 85 -a 0 -x {0.0 2.0 85 ------- null}
+ -t 0.185 -s 0 -d 1 -p cbr -e 100 -c 0 -i 86 -a 0 -x {0.0 2.0 86 ------- null}
+ -t 0.185 -s 0 -d 1 -p cbr -e 100 -c 0 -i 87 -a 0 -x {0.0 2.0 87 ------- null}
d -t 0.185 -s 0 -d 1 -p cbr -e 100 -c 0 -i 87 -a 0 -x {0.0 2.0 87 ------- null}
+ -t 0.185 -s 0 -d 1 -p cbr -e 100 -c 0 -i 88 -a 0 -x {0.0 2.0 88 ------- null}
d -t 0.185 -s 0 -d 1 -p cbr -e 100 -c 0 -i 88 -a 0 -x {0.0 2.0 88 ------- null}
+ -t 0.185 -s 0 -d 1 -p cbr -e 100 -c 0 -i 89 -a 0 -x {0.0 2.0 89 ------- null}
d -t 0.185 -s 0 -d 1 -p cbr -e 100 -c 0 -i 89 -a 0 -x {0.0 2.0 89 ------- null}
r -t 0.186 -s 0 -d 1 -p cbr -e 100 -c 0 -i 40 -a 0 -x {0.0 2.0 40 ------- null}
+ -t 0.186 -s 1 -d 2 -p cbr -e 100 -c 0 -i 40 -a 0 -x {0.0 2.0 40 ------- null}
- -t 0.188 -s 0 -d 1 -p cbr -e 100 -c 0 -i 55 -a 0 -x {0.0 2.0 55 ------- null}
h -t 0.188 -s 0 -d 1 -p cbr -e 100 -c 0 -i 55 -a 0 -x {0.0 2.0 -1 ------- null}
r -t 0.19 -s 0 -d 1 -p cbr -e 100 -c 0 -i 45 -a 0 -x {0.0 2.0 45 ------- null}
+ -t 0.19 -s 1 -d 2 -p cbr -e 100 -c 0 -i 45 -a 0 -x {0.0 2.0 45 ------- null}
+ -t 0.19 -s 0 -d 1 -p cbr -e 100 -c 0 -i 90 -a 0 -x {0.0 2.0 90 ------- null}
+ -t 0.19 -s 0 -d 1 -p cbr -e 100 -c 0 -i 91 -a 0 -x {0.0 2.0 91 ------- null}
d -t 0.19 -s 0 -d 1 -p cbr -e 100 -c 0 -i 91 -a 0 -x {0.0 2.0 91 ------- null}
+ -t 0.19 -s 0 -d 1 -p cbr -e 100 -c 0 -i 92 -a 0 -x {0.0 2.0 92 ------- null}
d -t 0.19 -s 0 -d 1 -p cbr -e 100 -c 0 -i 92 -a 0 -x {0.0 2.0 92 ------- null}
+ -t 0.19 -s 0 -d 1 -p cbr -e 100 -c 0 -i 93 -a 0 -x {0.0 2.0 93 ------- null}
d -t 0.19 -s 0 -d 1 -p cbr -e 100 -c 0 -i 93 -a 0 -x {0.0 2.0 93 ------- null}
+ -t 0.19 -s 0 -d 1 -p cbr -e 100 -c 0 -i 94 -a 0 -x {0.0 2.0 94 ------- null}
d -t 0.19 -s 0 -d 1 -p cbr -e 100 -c 0 -i 94 -a 0 -x {0.0 2.0 94 ------- null}
- -t 0.192 -s 0 -d 1 -p cbr -e 100 -c 0 -i 60 -a 0 -x {0.0 2.0 60 ------- null}
h -t 0.192 -s 0 -d 1 -p cbr -e 100 -c 0 -i 60 -a 0 -x {0.0 2.0 -1 ------- null}
- -t 0.194 -s 1 -d 2 -p cbr -e 100 -c 0 -i 2 -a 0 -x {0.0 2.0 2 ------- null}
h -t 0.194 -s 1 -d 2 -p cbr -e 100 -c 0 -i 2 -a 0 -x {0.0 2.0 -1 ------- null}
r -t 0.194 -s 0 -d 1 -p cbr -e 100 -c 0 -i 46 -a 0 -x {0.0 2.0 46 ------- null}
+ -t 0.194 -s 1 -d 2 -p cbr -e 100 -c 0 -i 46 -a 0 -x {0.0 2.0 46 ------- null}
+ -t 0.195 -s 0 -d 1 -p cbr -e 100 -c 0 -i 95 -a 0 -x {0.0 2.0 95 ------- null}
+ -t 0.195 -s 0 -d 1 -p cbr -e 100 -c 0 -i 96 -a 0 -x {0.0 2.0 96 ------- null}
d -t 0.195 -s 0 -d 1 -p cbr -e 100 -c 0 -i 96 -a 0 -x {0.0 2.0 96 ------- null}
+ -t 0.195 -s 0 -d 1 -p cbr -e 100 -c 0 -i 97 -a 0 -x {0.0 2.0 97 ------- null}
d -t 0.195 -s 0 -d 1 -p cbr -e 100 -c 0 -i 97 -a 0 -x {0.0 2.0 97 ------- null}
+ -t 0.195 -s 0 -d 1 -p cbr -e 100 -c 0 -i 98 -a 0 -x {0.0 2.0 98 ------- null}
d -t 0.195 -s 0 -d 1 -p cbr -e 100 -c 0 -i 98 -a 0 -x {0.0 2.0 98 ------- null}
+ -t 0.195 -s 0 -d 1 -p cbr -e 100 -c 0 -i 99 -a 0 -x {0.0 2.0 99 ------- null}
d -t 0.195 -s 0 -d 1 -p cbr -e 100 -c 0 -i 99 -a 0 -x {0.0 2.0 99 ------- null}
- -t 0.196 -s 0 -d 1 -p cbr -e 100 -c 0 -i 65 -a 0 -x {0.0 2.0 65 ------- null}
h -t 0.196 -s 0 -d 1 -p cbr -e 100 -c 0 -i 65 -a 0 -x {0.0 2.0 -1 ------- null}
r -t 0.198 -s 0 -d 1 -p cbr -e 100 -c 0 -i 50 -a 0 -x {0.0 2.0 50 ------- null}
+ -t 0.198 -s 1 -d 2 -p cbr -e 100 -c 0 -i 50 -a 0 -x {0.0 2.0 50 ------- null}
+ -t 0.2 -s 0 -d 1 -p cbr -e 100 -c 0 -i 100 -a 0 -x {0.0 2.0 100 ------- null}
+ -t 0.2 -s 0 -d 1 -p cbr -e 100 -c 0 -i 101 -a 0 -x {0.0 2.0 101 ------- null}
d -t 0.2 -s 0 -d 1 -p cbr -e 100 -c 0 -i 101 -a 0 -x {0.0 2.0 101 ------- null}
+ -t 0.2 -s 0 -d 1 -p cbr -e 100 -c 0 -i 102 -a 0 -x {0.0 2.0 102 ------- null}
d -t 0.2 -s 0 -d 1 -p cbr -e 100 -c 0 -i 102 -a 0 -x {0.0 2.0 102 ------- null}
+ -t 0.2 -s 0 -d 1 -p cbr -e 100 -c 0 -i 103 -a 0 -x {0.0 2.0 103 ------- null}
d -t 0.2 -s 0 -d 1 -p cbr -e 100 -c 0 -i 103 -a 0 -x {0.0 2.0 103 ------- null}
+ -t 0.2 -s 0 -d 1 -p cbr -e 100 -c 0 -i 104 -a 0 -x {0.0 2.0 104 ------- null}
d -t 0.2 -s 0 -d 1 -p cbr -e 100 -c 0 -i 104 -a 0 -x {0.0 2.0 104 ------- null}
- -t 0.2 -s 0 -d 1 -p cbr -e 100 -c 0 -i 66 -a 0 -x {0.0 2.0 66 ------- null}
h -t 0.2 -s 0 -d 1 -p cbr -e 100 -c 0 -i 66 -a 0 -x {0.0 2.0 -1 ------- null}
r -t 0.202 -s 0 -d 1 -p cbr -e 100 -c 0 -i 55 -a 0 -x {0.0 2.0 55 ------- null}
+ -t 0.202 -s 1 -d 2 -p cbr -e 100 -c 0 -i 55 -a 0 -x {0.0 2.0 55 ------- null}
- -t 0.204 -s 0 -d 1 -p cbr -e 100 -c 0 -i 70 -a 0 -x {0.0 2.0 70 ------- null}
h -t 0.204 -s 0 -d 1 -p cbr -e 100 -c 0 -i 70 -a 0 -x {0.0 2.0 -1 ------- null}
+ -t 0.205 -s 0 -d 1 -p cbr -e 100 -c 0 -i 105 -a 0 -x {0.0 2.0 105 ------- null}
+ -t 0.205 -s 0 -d 1 -p cbr -e 100 -c 0 -i 106 -a 0 -x {0.0 2.0 106 ------- null}
+ -t 0.205 -s 0 -d 1 -p cbr -e 100 -c 0 -i 107 -a 0 -x {0.0 2.0 107 ------- null}
d -t 0.205 -s 0 -d 1 -p cbr -e 100 -c 0 -i 107 -a 0 -x {0.0 2.0 107 ------- null}
+ -t 0.205 -s 0 -d 1 -p cbr -e 100 -c 0 -i 108 -a 0 -x {0.0 2.0 108 ------- null}
d -t 0.205 -s 0 -d 1 -p cbr -e 100 -c 0 -i 108 -a 0 -x {0.0 2.0 108 ------- null}
+ -t 0.205 -s 0 -d 1 -p cbr -e 100 -c 0 -i 109 -a 0 -x {0.0 2.0 109 ------- null}
d -t 0.205 -s 0 -d 1 -p cbr -e 100 -c 0 -i 109 -a 0 -x {0.0 2.0 109 ------- null}
r -t 0.206 -s 0 -d 1 -p cbr -e 100 -c 0 -i 60 -a 0 -x {0.0 2.0 60 ------- null}
+ -t 0.206 -s 1 -d 2 -p cbr -e 100 -c 0 -i 60 -a 0 -x {0.0 2.0 60 ------- null}
- -t 0.208 -s 0 -d 1 -p cbr -e 100 -c 0 -i 75 -a 0 -x {0.0 2.0 75 ------- null}
h -t 0.208 -s 0 -d 1 -p cbr -e 100 -c 0 -i 75 -a 0 -x {0.0 2.0 -1 ------- null}
r -t 0.21 -s 0 -d 1 -p cbr -e 100 -c 0 -i 65 -a 0 -x {0.0 2.0 65 ------- null}
+ -t 0.21 -s 1 -d 2 -p cbr -e 100 -c 0 -i 65 -a 0 -x {0.0 2.0 65 ------- null}
+ -t 0.21 -s 0 -d 1 -p cbr -e 100 -c 0 -i 110 -a 0 -x {0.0 2.0 110 ------- null}
+ -t 0.21 -s 0 -d 1 -p cbr -e 100 -c 0 -i 111 -a 0 -x {0.0 2.0 111 ------- null}
d -t 0.21 -s 0 -d 1 -p cbr -e 100 -c 0 -i 111 -a 0 -x {0.0 2.0 111 ------- null}
+ -t 0.21 -s 0 -d 1 -p cbr -e 100 -c 0 -i 112 -a 0 -x {0.0 2.0 112 ------- null}
d -t 0.21 -s 0 -d 1 -p cbr -e 100 -c 0 -i 112 -a 0 -x {0.0 2.0 112 ------- null}
+ -t 0.21 -s 0 -d 1 -p cbr -e 100 -c 0 -i 113 -a 0 -x {0.0 2.0 113 ------- null}
d -t 0.21 -s 0 -d 1 -p cbr -e 100 -c 0 -i 113 -a 0 -x {0.0 2.0 113 ------- null}
+ -t 0.21 -s 0 -d 1 -p cbr -e 100 -c 0 -i 114 -a 0 -x {0.0 2.0 114 ------- null}
d -t 0.21 -s 0 -d 1 -p cbr -e 100 -c 0 -i 114 -a 0 -x {0.0 2.0 114 ------- null}
- -t 0.212 -s 0 -d 1 -p cbr -e 100 -c 0 -i 80 -a 0 -x {0.0 2.0 80 ------- null}
h -t 0.212 -s 0 -d 1 -p cbr -e 100 -c 0 -i 80 -a 0 -x {0.0 2.0 -1 ------- null}
r -t 0.214 -s 0 -d 1 -p cbr -e 100 -c 0 -i 66 -a 0 -x {0.0 2.0 66 ------- null}
+ -t 0.214 -s 1 -d 2 -p cbr -e 100 -c 0 -i 66 -a 0 -x {0.0 2.0 66 ------- null}
+ -t 0.215 -s 0 -d 1 -p cbr -e 100 -c 0 -i 115 -a 0 -x {0.0 2.0 115 ------- null}
+ -t 0.215 -s 0 -d 1 -p cbr -e 100 -c 0 -i 116 -a 0 -x {0.0 2.0 116 ------- null}
d -t 0.215 -s 0 -d 1 -p cbr -e 100 -c 0 -i 116 -a 0 -x {0.0 2.0 116 ------- null}
+ -t 0.215 -s 0 -d 1 -p cbr -e 100 -c 0 -i 117 -a 0 -x {0.0 2.0 117 ------- null}
d -t 0.215 -s 0 -d 1 -p cbr -e 100 -c 0 -i 117 -a 0 -x {0.0 2.0 117 ------- null}
+ -t 0.215 -s 0 -d 1 -p cbr -e 100 -c 0 -i 118 -a 0 -x {0.0 2.0 118 ------- null}
d -t 0.215 -s 0 -d 1 -p cbr -e 100 -c 0 -i 118 -a 0 -x {0.0 2.0 118 ------- null}
+ -t 0.215 -s 0 -d 1 -p cbr -e 100 -c 0 -i 119 -a 0 -x {0.0 2.0 119 ------- null}
d -t 0.215 -s 0 -d 1 -p cbr -e 100 -c 0 -i 119 -a 0 -x {0.0 2.0 119 ------- null}
- -t 0.216 -s 0 -d 1 -p cbr -e 100 -c 0 -i 85 -a 0 -x {0.0 2.0 85 ------- null}
h -t 0.216 -s 0 -d 1 -p cbr -e 100 -c 0 -i 85 -a 0 -x {0.0 2.0 -1 ------- null}
r -t 0.218 -s 0 -d 1 -p cbr -e 100 -c 0 -i 70 -a 0 -x {0.0 2.0 70 ------- null}
+ -t 0.218 -s 1 -d 2 -p cbr -e 100 -c 0 -i 70 -a 0 -x {0.0 2.0 70 ------- null}
+ -t 0.22 -s 0 -d 1 -p cbr -e 100 -c 0 -i 120 -a 0 -x {0.0 2.0 120 ------- null}
+ -t 0.22 -s 0 -d 1 -p cbr -e 100 -c 0 -i 121 -a 0 -x {0.0 2.0 121 ------- null}
d -t 0.22 -s 0 -d 1 -p cbr -e 100 -c 0 -i 121 -a 0 -x {0.0 2.0 121 ------- null}
+ -t 0.22 -s 0 -d 1 -p cbr -e 100 -c 0 -i 122 -a 0 -x {0.0 2.0 122 ------- null}
d -t 0.22 -s 0 -d 1 -p cbr -e 100 -c 0 -i 122 -a 0 -x {0.0 2.0 122 ------- null}
+ -t 0.22 -s 0 -d 1 -p cbr -e 100 -c 0 -i 123 -a 0 -x {0.0 2.0 123 ------- null}
d -t 0.22 -s 0 -d 1 -p cbr -e 100 -c 0 -i 123 -a 0 -x {0.0 2.0 123 ------- null}
+ -t 0.22 -s 0 -d 1 -p cbr -e 100 -c 0 -i 124 -a 0 -x {0.0 2.0 124 ------- null}
d -t 0.22 -s 0 -d 1 -p cbr -e 100 -c 0 -i 124 -a 0 -x {0.0 2.0 124 ------- null}
- -t 0.22 -s 0 -d 1 -p cbr -e 100 -c 0 -i 86 -a 0 -x {0.0 2.0 86 ------- null}
h -t 0.22 -s 0 -d 1 -p cbr -e 100 -c 0 -i 86 -a 0 -x {0.0 2.0 -1 ------- null}
r -t 0.222 -s 0 -d 1 -p cbr -e 100 -c 0 -i 75 -a 0 -x {0.0 2.0 75 ------- null}
+ -t 0.222 -s 1 -d 2 -p cbr -e 100 -c 0 -i 75 -a 0 -x {0.0 2.0 75 ------- null}
- -t 0.224 -s 0 -d 1 -p cbr -e 100 -c 0 -i 90 -a 0 -x {0.0 2.0 90 ------- null}
h -t 0.224 -s 0 -d 1 -p cbr -e 100 -c 0 -i 90 -a 0 -x {0.0 2.0 -1 ------- null}
+ -t 0.225 -s 0 -d 1 -p cbr -e 100 -c 0 -i 125 -a 0 -x {0.0 2.0 125 ------- null}
+ -t 0.225 -s 0 -d 1 -p cbr -e 100 -c 0 -i 126 -a 0 -x {0.0 2.0 126 ------- null}
+ -t 0.225 -s 0 -d 1 -p cbr -e 100 -c 0 -i 127 -a 0 -x {0.0 2.0 127 ------- null}
d -t 0.225 -s 0 -d 1 -p cbr -e 100 -c 0 -i 127 -a 0 -x {0.0 2.0 127 ------- null}
+ -t 0.225 -s 0 -d 1 -p cbr -e 100 -c 0 -i 128 -a 0 -x {0.0 2.0 128 ------- null}
d -t 0.225 -s 0 -d 1 -p cbr -e 100 -c 0 -i 128 -a 0 -x {0.0 2.0 128 ------- null}
+ -t 0.225 -s 0 -d 1 -p cbr -e 100 -c 0 -i 129 -a 0 -x {0.0 2.0 129 ------- null}
d -t 0.225 -s 0 -d 1 -p cbr -e 100 -c 0 -i 129 -a 0 -x {0.0 2.0 129 ------- null}
r -t 0.226 -s 0 -d 1 -p cbr -e 100 -c 0 -i 80 -a 0 -x {0.0 2.0 80 ------- null}
+ -t 0.226 -s 1 -d 2 -p cbr -e 100 -c 0 -i 80 -a 0 -x {0.0 2.0 80 ------- null}
- -t 0.228 -s 0 -d 1 -p cbr -e 100 -c 0 -i 95 -a 0 -x {0.0 2.0 95 ------- null}
h -t 0.228 -s 0 -d 1 -p cbr -e 100 -c 0 -i 95 -a 0 -x {0.0 2.0 -1 ------- null}
r -t 0.23 -s 0 -d 1 -p cbr -e 100 -c 0 -i 85 -a 0 -x {0.0 2.0 85 ------- null}
+ -t 0.23 -s 1 -d 2 -p cbr -e 100 -c 0 -i 85 -a 0 -x {0.0 2.0 85 ------- null}
+ -t 0.23 -s 0 -d 1 -p cbr -e 100 -c 0 -i 130 -a 0 -x {0.0 2.0 130 ------- null}
+ -t 0.23 -s 0 -d 1 -p cbr -e 100 -c 0 -i 131 -a 0 -x {0.0 2.0 131 ------- null}
d -t 0.23 -s 0 -d 1 -p cbr -e 100 -c 0 -i 131 -a 0 -x {0.0 2.0 131 ------- null}
+ -t 0.23 -s 0 -d 1 -p cbr -e 100 -c 0 -i 132 -a 0 -x {0.0 2.0 132 ------- null}
d -t 0.23 -s 0 -d 1 -p cbr -e 100 -c 0 -i 132 -a 0 -x {0.0 2.0 132 ------- null}
+ -t 0.23 -s 0 -d 1 -p cbr -e 100 -c 0 -i 133 -a 0 -x {0.0 2.0 133 ------- null}
d -t 0.23 -s 0 -d 1 -p cbr -e 100 -c 0 -i 133 -a 0 -x {0.0 2.0 133 ------- null}
+ -t 0.23 -s 0 -d 1 -p cbr -e 100 -c 0 -i 134 -a 0 -x {0.0 2.0 134 ------- null}
d -t 0.23 -s 0 -d 1 -p cbr -e 100 -c 0 -i 134 -a 0 -x {0.0 2.0 134 ------- null}
- -t 0.232 -s 0 -d 1 -p cbr -e 100 -c 0 -i 100 -a 0 -x {0.0 2.0 100 ------- null}
h -t 0.232 -s 0 -d 1 -p cbr -e 100 -c 0 -i 100 -a 0 -x {0.0 2.0 -1 ------- null}
- -t 0.234 -s 1 -d 2 -p cbr -e 100 -c 0 -i 3 -a 0 -x {0.0 2.0 3 ------- null}
h -t 0.234 -s 1 -d 2 -p cbr -e 100 -c 0 -i 3 -a 0 -x {0.0 2.0 -1 ------- null}
r -t 0.234 -s 0 -d 1 -p cbr -e 100 -c 0 -i 86 -a 0 -x {0.0 2.0 86 ------- null}
+ -t 0.234 -s 1 -d 2 -p cbr -e 100 -c 0 -i 86 -a 0 -x {0.0 2.0 86 ------- null}
+ -t 0.235 -s 0 -d 1 -p cbr -e 100 -c 0 -i 135 -a 0 -x {0.0 2.0 135 ------- null}
+ -t 0.235 -s 0 -d 1 -p cbr -e 100 -c 0 -i 136 -a 0 -x {0.0 2.0 136 ------- null}
d -t 0.235 -s 0 -d 1 -p cbr -e 100 -c 0 -i 136 -a 0 -x {0.0 2.0 136 ------- null}
+ -t 0.235 -s 0 -d 1 -p cbr -e 100 -c 0 -i 137 -a 0 -x {0.0 2.0 137 ------- null}
d -t 0.235 -s 0 -d 1 -p cbr -e 100 -c 0 -i 137 -a 0 -x {0.0 2.0 137 ------- null}
+ -t 0.235 -s 0 -d 1 -p cbr -e 100 -c 0 -i 138 -a 0 -x {0.0 2.0 138 ------- null}